  LAMMPS data file, written by xyz2lammps (DMW)

            96 	atoms
            64 	bonds
            32 	angles
  0	dihedrals
  0	impropers
  2	atom types
  1	bond types
  1	angle types
  0	dihedral types
  0	improper types

   0.0000000000000000        23.480752278089540      	xlo xhi
   0.0000000000000000        17.610564208567151      	ylo yhi
   0.0000000000000000        17.610564208567151      	zlo zhi

  Masses

 	1	15.999400
 	2	1.0079401

Bond Coeffs

  1    1.78    0.2708585 -0.327738785 0.231328959

Angle Coeffs

  1    0.0700  107.400000

  Atoms

           1           1           1 -0.84760000000000002        0.0000000000000000        0.0000000000000000        0.0000000000000000
           2           1           2  0.42380000000000001        0.0000000000000000        0.0000000000000000       -1.8088457166708001
           3           1           2  0.42380000000000001        1.7510715142110542        0.0000000000000000       0.45351006475811106
           4           2           1 -0.84760000000000002        0.0000000000000000        0.0000000000000000        5.8701880695223849
           5           2           2  0.42380000000000001        0.0000000000000000        0.0000000000000000        4.0613423528515842
           6           2           2  0.42380000000000001        1.7510715142110542        0.0000000000000000        6.3236981342804954
           7           3           1 -0.84760000000000002        0.0000000000000000        0.0000000000000000        11.740376139044770
           8           3           2  0.42380000000000001        0.0000000000000000        0.0000000000000000        9.9315304223739691
           9           3           2  0.42380000000000001        1.7510715142110542        0.0000000000000000        12.193886203802879
          10           4           1 -0.84760000000000002        0.0000000000000000        5.8701880695223849        0.0000000000000000
          11           4           2  0.42380000000000001        0.0000000000000000        5.8701880695223849       -1.8088457166708001
          12           4           2  0.42380000000000001        1.7510715142110542        5.8701880695223849       0.45351006475811106
          13           5           1 -0.84760000000000002        0.0000000000000000        5.8701880695223849        5.8701880695223849
          14           5           2  0.42380000000000001        0.0000000000000000        5.8701880695223849        4.0613423528515842
          15           5           2  0.42380000000000001        1.7510715142110542        5.8701880695223849        6.3236981342804954
          16           6           1 -0.84760000000000002        0.0000000000000000        5.8701880695223849        11.740376139044770
          17           6           2  0.42380000000000001        0.0000000000000000        5.8701880695223849        9.9315304223739691
          18           6           2  0.42380000000000001        1.7510715142110542        5.8701880695223849        12.193886203802879
          19           7           1 -0.84760000000000002        0.0000000000000000        11.740376139044770        0.0000000000000000
          20           7           2  0.42380000000000001        0.0000000000000000        11.740376139044770       -1.8088457166708001
          21           7           2  0.42380000000000001        1.7510715142110542        11.740376139044770       0.45351006475811106
          22           8           1 -0.84760000000000002        0.0000000000000000        11.740376139044770        5.8701880695223849
          23           8           2  0.42380000000000001        0.0000000000000000        11.740376139044770        4.0613423528515842
          24           8           2  0.42380000000000001        1.7510715142110542        11.740376139044770        6.3236981342804954
          25           9           1 -0.84760000000000002        0.0000000000000000        11.740376139044770        11.740376139044770
          26           9           2  0.42380000000000001        0.0000000000000000        11.740376139044770        9.9315304223739691
          27           9           2  0.42380000000000001        1.7510715142110542        11.740376139044770        12.193886203802879
          28          10           1 -0.84760000000000002        5.8701880695223849        0.0000000000000000        0.0000000000000000
          29          10           2  0.42380000000000001        5.8701880695223849        0.0000000000000000       -1.8088457166708001
          30          10           2  0.42380000000000001        7.6212595837334396        0.0000000000000000       0.45351006475811106
          31          11           1 -0.84760000000000002        5.8701880695223849        0.0000000000000000        5.8701880695223849
          32          11           2  0.42380000000000001        5.8701880695223849        0.0000000000000000        4.0613423528515842
          33          11           2  0.42380000000000001        7.6212595837334396        0.0000000000000000        6.3236981342804954
          34          12           1 -0.84760000000000002        5.8701880695223849        0.0000000000000000        11.740376139044770
          35          12           2  0.42380000000000001        5.8701880695223849        0.0000000000000000        9.9315304223739691
          36          12           2  0.42380000000000001        7.6212595837334396        0.0000000000000000        12.193886203802879
          37          13           1 -0.84760000000000002        5.8701880695223849        5.8701880695223849        0.0000000000000000
          38          13           2  0.42380000000000001        5.8701880695223849        5.8701880695223849       -1.8088457166708001
          39          13           2  0.42380000000000001        7.6212595837334396        5.8701880695223849       0.45351006475811106
          40          14           1 -0.84760000000000002        5.8701880695223849        5.8701880695223849        5.8701880695223849
          41          14           2  0.42380000000000001        5.8701880695223849        5.8701880695223849        4.0613423528515842
          42          14           2  0.42380000000000001        7.6212595837334396        5.8701880695223849        6.3236981342804954
          43          15           1 -0.84760000000000002        5.8701880695223849        5.8701880695223849        11.740376139044770
          44          15           2  0.42380000000000001        5.8701880695223849        5.8701880695223849        9.9315304223739691
          45          15           2  0.42380000000000001        7.6212595837334396        5.8701880695223849        12.193886203802879
          46          16           1 -0.84760000000000002        5.8701880695223849        11.740376139044770        0.0000000000000000
          47          16           2  0.42380000000000001        5.8701880695223849        11.740376139044770       -1.8088457166708001
          48          16           2  0.42380000000000001        7.6212595837334396        11.740376139044770       0.45351006475811106
          49          17           1 -0.84760000000000002        5.8701880695223849        11.740376139044770        5.8701880695223849
          50          17           2  0.42380000000000001        5.8701880695223849        11.740376139044770        4.0613423528515842
          51          17           2  0.42380000000000001        7.6212595837334396        11.740376139044770        6.3236981342804954
          52          18           1 -0.84760000000000002        5.8701880695223849        11.740376139044770        11.740376139044770
          53          18           2  0.42380000000000001        5.8701880695223849        11.740376139044770        9.9315304223739691
          54          18           2  0.42380000000000001        7.6212595837334396        11.740376139044770        12.193886203802879
          55          19           1 -0.84760000000000002        11.740376139044770        0.0000000000000000        0.0000000000000000
          56          19           2  0.42380000000000001        11.740376139044770        0.0000000000000000       -1.8088457166708001
          57          19           2  0.42380000000000001        13.491447653255824        0.0000000000000000       0.45351006475811106
          58          20           1 -0.84760000000000002        11.740376139044770        0.0000000000000000        5.8701880695223849
          59          20           2  0.42380000000000001        11.740376139044770        0.0000000000000000        4.0613423528515842
          60          20           2  0.42380000000000001        13.491447653255824        0.0000000000000000        6.3236981342804954
          61          21           1 -0.84760000000000002        11.740376139044770        0.0000000000000000        11.740376139044770
          62          21           2  0.42380000000000001        11.740376139044770        0.0000000000000000        9.9315304223739691
          63          21           2  0.42380000000000001        13.491447653255824        0.0000000000000000        12.193886203802879
          64          22           1 -0.84760000000000002        11.740376139044770        5.8701880695223849        0.0000000000000000
          65          22           2  0.42380000000000001        11.740376139044770        5.8701880695223849       -1.8088457166708001
          66          22           2  0.42380000000000001        13.491447653255824        5.8701880695223849       0.45351006475811106
          67          23           1 -0.84760000000000002        11.740376139044770        5.8701880695223849        5.8701880695223849
          68          23           2  0.42380000000000001        11.740376139044770        5.8701880695223849        4.0613423528515842
          69          23           2  0.42380000000000001        13.491447653255824        5.8701880695223849        6.3236981342804954
          70          24           1 -0.84760000000000002        11.740376139044770        5.8701880695223849        11.740376139044770
          71          24           2  0.42380000000000001        11.740376139044770        5.8701880695223849        9.9315304223739691
          72          24           2  0.42380000000000001        13.491447653255824        5.8701880695223849        12.193886203802879
          73          25           1 -0.84760000000000002        11.740376139044770        11.740376139044770        0.0000000000000000
          74          25           2  0.42380000000000001        11.740376139044770        11.740376139044770       -1.8088457166708001
          75          25           2  0.42380000000000001        13.491447653255824        11.740376139044770       0.45351006475811106
          76          26           1 -0.84760000000000002        11.740376139044770        11.740376139044770        5.8701880695223849
          77          26           2  0.42380000000000001        11.740376139044770        11.740376139044770        4.0613423528515842
          78          26           2  0.42380000000000001        13.491447653255824        11.740376139044770        6.3236981342804954
          79          27           1 -0.84760000000000002        11.740376139044770        11.740376139044770        11.740376139044770
          80          27           2  0.42380000000000001        11.740376139044770        11.740376139044770        9.9315304223739691
          81          27           2  0.42380000000000001        13.491447653255824        11.740376139044770        12.193886203802879
          82          28           1 -0.84760000000000002        17.610564208567151        0.0000000000000000        0.0000000000000000
          83          28           2  0.42380000000000001        17.610564208567151        0.0000000000000000       -1.8088457166708001
          84          28           2  0.42380000000000001        19.361635722778203        0.0000000000000000       0.45351006475811106
          85          29           1 -0.84760000000000002        17.610564208567151        0.0000000000000000        5.8701880695223849
          86          29           2  0.42380000000000001        17.610564208567151        0.0000000000000000        4.0613423528515842
          87          29           2  0.42380000000000001        19.361635722778203        0.0000000000000000        6.3236981342804954
          88          30           1 -0.84760000000000002        17.610564208567151        0.0000000000000000        11.740376139044770
          89          30           2  0.42380000000000001        17.610564208567151        0.0000000000000000        9.9315304223739691
          90          30           2  0.42380000000000001        19.361635722778203        0.0000000000000000        12.193886203802879
          91          31           1 -0.84760000000000002        17.610564208567151        5.8701880695223849        0.0000000000000000
          92          31           2  0.42380000000000001        17.610564208567151        5.8701880695223849       -1.8088457166708001
          93          31           2  0.42380000000000001        19.361635722778203        5.8701880695223849       0.45351006475811106
          94          32           1 -0.84760000000000002        17.610564208567151        5.8701880695223849        5.8701880695223849
          95          32           2  0.42380000000000001        17.610564208567151        5.8701880695223849        4.0613423528515842
          96          32           2  0.42380000000000001        19.361635722778203        5.8701880695223849        6.3236981342804954

  Bonds

           1 	1           1           2
           2 	1           1           3
           3 	1           4           5
           4 	1           4           6
           5 	1           7           8
           6 	1           7           9
           7 	1          10          11
           8 	1          10          12
           9 	1          13          14
          10 	1          13          15
          11 	1          16          17
          12 	1          16          18
          13 	1          19          20
          14 	1          19          21
          15 	1          22          23
          16 	1          22          24
          17 	1          25          26
          18 	1          25          27
          19 	1          28          29
          20 	1          28          30
          21 	1          31          32
          22 	1          31          33
          23 	1          34          35
          24 	1          34          36
          25 	1          37          38
          26 	1          37          39
          27 	1          40          41
          28 	1          40          42
          29 	1          43          44
          30 	1          43          45
          31 	1          46          47
          32 	1          46          48
          33 	1          49          50
          34 	1          49          51
          35 	1          52          53
          36 	1          52          54
          37 	1          55          56
          38 	1          55          57
          39 	1          58          59
          40 	1          58          60
          41 	1          61          62
          42 	1          61          63
          43 	1          64          65
          44 	1          64          66
          45 	1          67          68
          46 	1          67          69
          47 	1          70          71
          48 	1          70          72
          49 	1          73          74
          50 	1          73          75
          51 	1          76          77
          52 	1          76          78
          53 	1          79          80
          54 	1          79          81
          55 	1          82          83
          56 	1          82          84
          57 	1          85          86
          58 	1          85          87
          59 	1          88          89
          60 	1          88          90
          61 	1          91          92
          62 	1          91          93
          63 	1          94          95
          64 	1          94          96

  Angles

           1 	1           2           1           3
           2 	1           5           4           6
           3 	1           8           7           9
           4 	1          11          10          12
           5 	1          14          13          15
           6 	1          17          16          18
           7 	1          20          19          21
           8 	1          23          22          24
           9 	1          26          25          27
          10 	1          29          28          30
          11 	1          32          31          33
          12 	1          35          34          36
          13 	1          38          37          39
          14 	1          41          40          42
          15 	1          44          43          45
          16 	1          47          46          48
          17 	1          50          49          51
          18 	1          53          52          54
          19 	1          56          55          57
          20 	1          59          58          60
          21 	1          62          61          63
          22 	1          65          64          66
          23 	1          68          67          69
          24 	1          71          70          72
          25 	1          74          73          75
          26 	1          77          76          78
          27 	1          80          79          81
          28 	1          83          82          84
          29 	1          86          85          87
          30 	1          89          88          90
          31 	1          92          91          93
          32 	1          95          94          96
