3
# CELL(abcABC):   16.00000    16.00000    16.00000    90.00000    90.00000    90.00000  cell{atomic_unit}  Traj: x_centroid{angstrom} Step:         755  Bead:       0 
       O -5.65199e-01  1.03752e+00  2.40277e-01
       H -9.28716e-01  6.86169e-01 -5.48253e-01
       H -1.05979e+00  5.44206e-01  8.92487e-01
