6
# CELL(abcABC):  105.83544   105.83544   105.83544    90.00000    90.00000    90.00000  Step:           0  Bead:       0 positions{angstrom}  cell{angstrom}
       H  1.37629e+00  1.64754e+00  1.39473e+00
       C  5.61049e-01  6.91017e-01  5.78583e-01
       H  3.13332e-02  1.47434e-01  1.36074e+00
       H  1.34127e+00  1.41874e-01  5.16893e-02
       H -3.52237e-02  1.37867e+00 -2.09976e-02
       H  2.16263e+00  2.65169e+00  2.29093e+00
