#Bead    Energy (eV)
0     0.650582818478
