LAMMPS (28 Mar20 2016-ICMS)
Reading data file ...
  orthogonal box = (0 0 0) to (23.4808 17.6106 17.6106)
  1 by 1 by 1 MPI processor grid
  reading atoms ...
  96 atoms
  scanning bonds ...
  2 = max bonds/atom
  scanning angles ...
  1 = max angles/atom
  reading bonds ...
  64 bonds
  reading angles ...
  32 angles
Finding 1-2 1-3 1-4 neighbors ...
 Special bond factors lj:   0          0          0         
 Special bond factors coul: 0          0          0         
  2 = max # of 1-2 neighbors
  1 = max # of 1-3 neighbors
  1 = max # of 1-4 neighbors
  2 = max # of special neighbors
PPPM initialization ...
  extracting TIP4P info from pair style
  G vector (1/distance) = 0.160243
  grid = 8 8 8
  stencil order = 5
  estimated absolute RMS force accuracy = 1.29486e-05
  estimated relative force accuracy = 4.62403e-05
  using double precision FFTs
  3d grid and FFT values/proc = 2925 512
Neighbor list info ...
  1 neighbor list requests
  update every 1 steps, delay 0 steps, check yes
  max neighbors/atom: 2000, page size: 100000
  master list distance cutoff = 19.5631
  ghost atom cutoff = 19.5631
  binsize = 9.78157, bins = 3 2 2
Setting up Verlet run ...
  Unit style    : electron
  Current step  : 0
  Time step     : 0.00025
Memory usage per processor = 6.33916 Mbytes
Step Temp E_pair E_mol TotEng Press 
       0            0  -0.24255977  0.019590411  -0.22296936 -1.7520663e+09 
Hello World!2.48656e+08Hello World!
Hello World!3.02991e+08Hello World!
Hello World!3.45485e+08Hello World!
Hello World!3.7557e+08Hello World!
Hello World!3.84434e+08Hello World!
Hello World!3.91879e+08Hello World!
Hello World!3.98459e+08Hello World!
Hello World!4.16175e+08Hello World!
Hello World!4.37717e+08Hello World!
Hello World!4.58871e+08Hello World!
Hello World!4.86646e+08Hello World!
Hello World!5.24048e+08Hello World!
Hello World!5.47369e+08Hello World!
Hello World!5.61673e+08Hello World!
Hello World!5.55001e+08Hello World!
Hello World!5.39508e+08Hello World!
Hello World!5.16306e+08Hello World!
Hello World!4.70657e+08Hello World!
Hello World!4.05976e+08Hello World!
Hello World!3.13163e+08Hello World!
Hello World!2.06339e+08Hello World!
Hello World!9.81973e+07Hello World!
Hello World!-5.28902e+06Hello World!
Hello World!-1.03757e+08Hello World!
Hello World!-1.85509e+08Hello World!
Hello World!-2.46908e+08Hello World!
Hello World!-2.99829e+08Hello World!
Hello World!-3.30877e+08Hello World!
Hello World!-3.40136e+08Hello World!
Hello World!-3.20793e+08Hello World!
Hello World!-2.86846e+08Hello World!
Hello World!-2.40462e+08Hello World!
Hello World!-1.81932e+08Hello World!
Hello World!-1.20236e+08Hello World!
Hello World!-5.83982e+07Hello World!
Hello World!-1.41574e+07Hello World!
Hello World!2.83668e+07Hello World!
Hello World!6.42496e+07Hello World!
Hello World!9.45728e+07Hello World!
Hello World!1.1954e+08Hello World!
Hello World!1.4133e+08Hello World!
Hello World!1.67962e+08Hello World!
Hello World!1.90671e+08Hello World!
Hello World!2.11038e+08Hello World!
Hello World!2.22829e+08Hello World!
Hello World!2.24512e+08Hello World!
Hello World!2.23333e+08Hello World!
Hello World!2.09675e+08Hello World!
Hello World!1.93657e+08Hello World!
Hello World!1.56528e+08Hello World!
Hello World!1.0634e+08Hello World!
Hello World!3.69209e+07Hello World!
Hello World!-5.72864e+07Hello World!
Hello World!-1.68911e+08Hello World!
Hello World!-2.88559e+08Hello World!
Hello World!-4.11989e+08Hello World!
Hello World!-5.42288e+08Hello World!
Hello World!-6.74861e+08Hello World!
Hello World!-7.94636e+08Hello World!
Hello World!-8.88451e+08Hello World!
Hello World!-9.53607e+08Hello World!
Hello World!-9.93156e+08Hello World!
Hello World!-1.00618e+09Hello World!
Hello World!-9.92853e+08Hello World!
Hello World!-9.62486e+08Hello World!
Hello World!-8.96156e+08Hello World!
Hello World!-7.99115e+08Hello World!
Hello World!-6.74084e+08Hello World!
Hello World!-5.35562e+08Hello World!
Hello World!-3.90561e+08Hello World!
Hello World!-2.49965e+08Hello World!
Hello World!-1.05827e+08Hello World!
Hello World!3.01448e+07Hello World!
Hello World!1.59831e+08Hello World!
Hello World!2.81375e+08Hello World!
Hello World!3.82429e+08Hello World!
Hello World!4.64434e+08Hello World!
Hello World!5.2662e+08Hello World!
Hello World!5.66601e+08Hello World!
Hello World!5.86151e+08Hello World!
Hello World!5.91627e+08Hello World!
Hello World!5.83557e+08Hello World!
Hello World!5.51995e+08Hello World!
Hello World!5.01753e+08Hello World!
Hello World!4.21538e+08Hello World!
Hello World!3.2002e+08Hello World!
Hello World!2.0105e+08Hello World!
Hello World!5.53828e+07Hello World!
Hello World!-1.0152e+08Hello World!
Hello World!-2.71014e+08Hello World!
Hello World!-4.42742e+08Hello World!
Hello World!-5.97348e+08Hello World!
Hello World!-7.35846e+08Hello World!
Hello World!-8.52424e+08Hello World!
Hello World!-9.44086e+08Hello World!
Hello World!-9.99259e+08Hello World!
Hello World!-1.02505e+09Hello World!
Hello World!-1.02007e+09Hello World!
Hello World!-9.8921e+08Hello World!
Hello World!-9.41238e+08Hello World!
Hello World!-8.61979e+08Hello World!
Hello World!-7.65466e+08Hello World!
Hello World!-6.44076e+08Hello World!
Hello World!-5.14846e+08Hello World!
Hello World!-3.79046e+08Hello World!
Hello World!-2.38757e+08Hello World!
Hello World!-1.07102e+08Hello World!
Hello World!1.02998e+07Hello World!
Hello World!1.22479e+08Hello World!
Hello World!2.17078e+08Hello World!
Hello World!2.99531e+08Hello World!
Hello World!3.67172e+08Hello World!
Hello World!4.21657e+08Hello World!
Hello World!4.67211e+08Hello World!
Hello World!4.82518e+08Hello World!
Hello World!4.73733e+08Hello World!
Hello World!4.35933e+08Hello World!
Hello World!3.84991e+08Hello World!
Hello World!3.0235e+08Hello World!
Hello World!1.89321e+08Hello World!
Hello World!5.00657e+07Hello World!
Hello World!-9.94414e+07Hello World!
Hello World!-2.6234e+08Hello World!
Hello World!-4.29501e+08Hello World!
Hello World!-6.13142e+08Hello World!
Hello World!-8.0303e+08Hello World!
Hello World!-9.93373e+08Hello World!
Hello World!-1.16985e+09Hello World!
Hello World!-1.33007e+09Hello World!
Hello World!-1.47132e+09Hello World!
Hello World!-1.59754e+09Hello World!
Hello World!-1.70115e+09Hello World!
Hello World!-1.76379e+09Hello World!
Hello World!-1.78858e+09Hello World!
Hello World!-1.78184e+09Hello World!
Hello World!-1.74081e+09Hello World!
Hello World!-1.66171e+09Hello World!
Hello World!-1.55779e+09Hello World!
Hello World!-1.44202e+09Hello World!
Hello World!-1.30331e+09Hello World!
Hello World!-1.14384e+09Hello World!
Hello World!-9.65925e+08Hello World!
Hello World!-7.75068e+08Hello World!
Hello World!-5.63087e+08Hello World!
Hello World!-3.42194e+08Hello World!
Hello World!-1.13007e+08Hello World!
Hello World!1.06362e+08Hello World!
Hello World!3.14451e+08Hello World!
Hello World!5.18966e+08Hello World!
Hello World!6.93568e+08Hello World!
Hello World!8.29811e+08Hello World!
Hello World!9.34836e+08Hello World!
Hello World!9.91414e+08Hello World!
Hello World!1.02261e+09Hello World!
Hello World!1.02497e+09Hello World!
Hello World!9.99334e+08Hello World!
Hello World!9.32749e+08Hello World!
Hello World!8.28284e+08Hello World!
Hello World!7.03105e+08Hello World!
Hello World!5.44852e+08Hello World!
Hello World!3.6721e+08Hello World!
Hello World!1.65291e+08Hello World!
Hello World!-5.01886e+07Hello World!
Hello World!-2.60255e+08Hello World!
Hello World!-4.64586e+08Hello World!
Hello World!-6.50389e+08Hello World!
Hello World!-8.13154e+08Hello World!
Hello World!-9.51436e+08Hello World!
Hello World!-1.06175e+09Hello World!
Hello World!-1.1304e+09Hello World!
Hello World!-1.16998e+09Hello World!
Hello World!-1.17326e+09Hello World!
Hello World!-1.14547e+09Hello World!
Hello World!-1.08909e+09Hello World!
Hello World!-1.00869e+09Hello World!
Hello World!-8.8595e+08Hello World!
Hello World!-7.29124e+08Hello World!
Hello World!-5.50422e+08Hello World!
Hello World!-3.46395e+08Hello World!
Hello World!-1.40878e+08Hello World!
Hello World!6.9253e+07Hello World!
Hello World!2.7946e+08Hello World!
Hello World!4.87875e+08Hello World!
Hello World!6.76838e+08Hello World!
Hello World!8.40261e+08Hello World!
Hello World!9.69532e+08Hello World!
Hello World!1.07568e+09Hello World!
Hello World!1.15443e+09Hello World!
Hello World!1.20654e+09Hello World!
Hello World!1.2214e+09Hello World!
Hello World!1.19552e+09Hello World!
Hello World!1.14692e+09Hello World!
Hello World!1.06669e+09Hello World!
Hello World!9.50303e+08Hello World!
Hello World!8.05234e+08Hello World!
Hello World!6.4943e+08Hello World!
Hello World!4.87555e+08Hello World!
Hello World!3.14171e+08Hello World!
Hello World!1.48351e+08Hello World!
Hello World!-1.28385e+07Hello World!
Hello World!-1.67447e+08Hello World!
Hello World!-3.20024e+08Hello World!
Hello World!-4.52518e+08Hello World!
Hello World!-5.70186e+08Hello World!
Hello World!-6.75e+08Hello World!
Hello World!-7.53439e+08Hello World!
Hello World!-8.07078e+08Hello World!
Hello World!-8.47169e+08Hello World!
Hello World!-8.59416e+08Hello World!
Hello World!-8.5819e+08Hello World!
Hello World!-8.41824e+08Hello World!
Hello World!-8.01074e+08Hello World!
Hello World!-7.47928e+08Hello World!
Hello World!-6.73721e+08Hello World!
Hello World!-5.8251e+08Hello World!
Hello World!-4.89075e+08Hello World!
Hello World!-3.83673e+08Hello World!
Hello World!-2.67812e+08Hello World!
Hello World!-1.49512e+08Hello World!
Hello World!-4.42907e+07Hello World!
Hello World!5.36306e+07Hello World!
Hello World!1.3531e+08Hello World!
Hello World!2.07924e+08Hello World!
Hello World!2.70579e+08Hello World!
Hello World!3.12157e+08Hello World!
Hello World!3.54377e+08Hello World!
Hello World!3.78319e+08Hello World!
Hello World!3.96011e+08Hello World!
Hello World!4.04e+08Hello World!
Hello World!3.99653e+08Hello World!
Hello World!3.83329e+08Hello World!
Hello World!3.65343e+08Hello World!
Hello World!3.42842e+08Hello World!
Hello World!3.09204e+08Hello World!
Hello World!2.77089e+08Hello World!
Hello World!2.36437e+08Hello World!
Hello World!1.92992e+08Hello World!
Hello World!1.53103e+08Hello World!
Hello World!1.17444e+08Hello World!
Hello World!8.27135e+07Hello World!
Hello World!4.93347e+07Hello World!
Hello World!2.29298e+07Hello World!
Hello World!6.44129e+06Hello World!
Hello World!-1.98549e+07Hello World!
Hello World!-3.40242e+07Hello World!
Hello World!-3.93139e+07Hello World!
Hello World!-4.03231e+07Hello World!
Hello World!-4.18439e+07Hello World!
Hello World!-2.58276e+07Hello World!
Hello World!2.61339e+06Hello World!
Hello World!4.25723e+07Hello World!
Hello World!8.79156e+07Hello World!
Hello World!1.57694e+08Hello World!
Hello World!2.30291e+08Hello World!
Hello World!3.03833e+08Hello World!
Hello World!3.76089e+08Hello World!
Hello World!4.35574e+08Hello World!
Hello World!4.86941e+08Hello World!
Hello World!5.25406e+08Hello World!
Hello World!5.57522e+08Hello World!
Hello World!5.73371e+08Hello World!
Hello World!5.87351e+08Hello World!
Hello World!5.90438e+08Hello World!
Hello World!5.95449e+08Hello World!
Hello World!6.01044e+08Hello World!
Hello World!6.05788e+08Hello World!
Hello World!5.96014e+08Hello World!
Hello World!5.75127e+08Hello World!
Hello World!5.46005e+08Hello World!
Hello World!5.05262e+08Hello World!
Hello World!4.67899e+08Hello World!
Hello World!4.26996e+08Hello World!
Hello World!3.90811e+08Hello World!
Hello World!3.61903e+08Hello World!
Hello World!3.25537e+08Hello World!
Hello World!2.81031e+08Hello World!
Hello World!2.25585e+08Hello World!
Hello World!1.5481e+08Hello World!
Hello World!7.75119e+07Hello World!
Hello World!-1.08262e+07Hello World!
Hello World!-8.72285e+07Hello World!
Hello World!-1.59232e+08Hello World!
Hello World!-2.29233e+08Hello World!
Hello World!-2.91391e+08Hello World!
Hello World!-3.39677e+08Hello World!
Hello World!-3.62513e+08Hello World!
Hello World!-3.67292e+08Hello World!
Hello World!-3.5277e+08Hello World!
Hello World!-3.14951e+08Hello World!
Hello World!-2.60508e+08Hello World!
Hello World!-1.92593e+08Hello World!
Hello World!-1.24602e+08Hello World!
Hello World!-6.6467e+07Hello World!
Hello World!-9.66574e+06Hello World!
Hello World!5.12259e+07Hello World!
Hello World!1.11723e+08Hello World!
Hello World!1.69932e+08Hello World!
Hello World!2.07602e+08Hello World!
Hello World!2.41413e+08Hello World!
Hello World!2.55252e+08Hello World!
Hello World!2.59378e+08Hello World!
Hello World!2.52177e+08Hello World!
Hello World!2.36122e+08Hello World!
Hello World!2.07269e+08Hello World!
Hello World!1.42589e+08Hello World!
Hello World!6.61148e+07Hello World!
Hello World!-2.20785e+07Hello World!
Hello World!-1.21627e+08Hello World!
Hello World!-2.23119e+08Hello World!
Hello World!-3.29174e+08Hello World!
Hello World!-4.28082e+08Hello World!
Hello World!-5.30825e+08Hello World!
Hello World!-6.20653e+08Hello World!
Hello World!-6.99165e+08Hello World!
Hello World!-7.69063e+08Hello World!
Hello World!-8.10874e+08Hello World!
Hello World!-8.31987e+08Hello World!
Hello World!-8.40751e+08Hello World!
Hello World!-8.29864e+08Hello World!
Hello World!-7.82696e+08Hello World!
Hello World!-7.13264e+08Hello World!
Hello World!-6.00842e+08Hello World!
Hello World!-4.87357e+08Hello World!
Hello World!-3.49212e+08Hello World!
Hello World!-2.02835e+08Hello World!
Hello World!-4.56596e+07Hello World!
Hello World!9.26391e+07Hello World!
Hello World!2.09803e+08Hello World!
Hello World!3.12119e+08Hello World!
Hello World!3.97386e+08Hello World!
Hello World!4.6268e+08Hello World!
Hello World!5.07985e+08Hello World!
Hello World!5.2582e+08Hello World!
Hello World!5.0297e+08Hello World!
Hello World!4.61613e+08Hello World!
Hello World!3.94833e+08Hello World!
Hello World!3.11108e+08Hello World!
Hello World!2.15638e+08Hello World!
Hello World!1.15658e+08Hello World!
Hello World!1.75119e+07Hello World!
Hello World!-6.95984e+07Hello World!
Hello World!-1.55497e+08Hello World!
Hello World!-2.46932e+08Hello World!
Hello World!-3.27804e+08Hello World!
Hello World!-3.98739e+08Hello World!
Hello World!-4.54299e+08Hello World!
Hello World!-4.8612e+08Hello World!
Hello World!-5.09747e+08Hello World!
Hello World!-5.19532e+08Hello World!
Hello World!-5.17738e+08Hello World!
Hello World!-4.9202e+08Hello World!
Hello World!-4.48725e+08Hello World!
Hello World!-3.8367e+08Hello World!
Hello World!-3.0505e+08Hello World!
Hello World!-2.13517e+08Hello World!
Hello World!-1.04959e+08Hello World!
Hello World!1.07802e+07Hello World!
Hello World!1.24187e+08Hello World!
Hello World!2.26283e+08Hello World!
Hello World!3.21766e+08Hello World!
Hello World!4.10438e+08Hello World!
Hello World!4.93467e+08Hello World!
Hello World!5.58071e+08Hello World!
Hello World!5.8906e+08Hello World!
Hello World!5.98134e+08Hello World!
Hello World!5.94543e+08Hello World!
Hello World!5.55741e+08Hello World!
Hello World!5.0165e+08Hello World!
Hello World!4.17904e+08Hello World!
Hello World!3.10941e+08Hello World!
Hello World!1.93551e+08Hello World!
Hello World!5.64469e+07Hello World!
Hello World!-9.64424e+07Hello World!
Hello World!-2.40972e+08Hello World!
Hello World!-3.78529e+08Hello World!
Hello World!-5.06884e+08Hello World!
Hello World!-6.25068e+08Hello World!
Hello World!-7.26615e+08Hello World!
Hello World!-8.12851e+08Hello World!
Hello World!-8.76045e+08Hello World!
Hello World!-9.17369e+08Hello World!
Hello World!-9.44045e+08Hello World!
Hello World!-9.64098e+08Hello World!
Hello World!-9.72323e+08Hello World!
Hello World!-9.50851e+08Hello World!
Hello World!-9.07719e+08Hello World!
Hello World!-8.32552e+08Hello World!
Hello World!-7.41929e+08Hello World!
Hello World!-6.35921e+08Hello World!
Hello World!-5.16812e+08Hello World!
Hello World!-3.88622e+08Hello World!
Hello World!-2.55915e+08Hello World!
Hello World!-1.07426e+08Hello World!
Hello World!3.80477e+07Hello World!
Hello World!1.73743e+08Hello World!
Hello World!2.96731e+08Hello World!
Hello World!4.12073e+08Hello World!
Hello World!5.09436e+08Hello World!
Hello World!5.87748e+08Hello World!
Hello World!6.41407e+08Hello World!
Hello World!6.76775e+08Hello World!
Hello World!6.92716e+08Hello World!
Hello World!6.68491e+08Hello World!
Hello World!6.01188e+08Hello World!
Hello World!5.21836e+08Hello World!
Hello World!4.21423e+08Hello World!
Hello World!3.01664e+08Hello World!
Hello World!1.69847e+08Hello World!
Hello World!1.06048e+07Hello World!
Hello World!-1.49654e+08Hello World!
Hello World!-3.23866e+08Hello World!
Hello World!-4.88075e+08Hello World!
Hello World!-6.43243e+08Hello World!
Hello World!-7.83723e+08Hello World!
Hello World!-9.15784e+08Hello World!
Hello World!-1.03782e+09Hello World!
Hello World!-1.13429e+09Hello World!
Hello World!-1.19527e+09Hello World!
Hello World!-1.21667e+09Hello World!
Hello World!-1.19733e+09Hello World!
Hello World!-1.14684e+09Hello World!
Hello World!-1.06473e+09Hello World!
Hello World!-9.60661e+08Hello World!
Hello World!-8.347e+08Hello World!
Hello World!-6.98669e+08Hello World!
Hello World!-5.41024e+08Hello World!
Hello World!-3.7663e+08Hello World!
Hello World!-1.9406e+08Hello World!
Hello World!-1.59413e+07Hello World!
Hello World!1.64751e+08Hello World!
Hello World!3.28981e+08Hello World!
Hello World!4.69276e+08Hello World!
Hello World!5.8791e+08Hello World!
Hello World!6.88868e+08Hello World!
Hello World!7.70075e+08Hello World!
Hello World!8.31399e+08Hello World!
Hello World!8.626e+08Hello World!
Hello World!8.64334e+08Hello World!
Hello World!8.56936e+08Hello World!
Hello World!8.29869e+08Hello World!
Hello World!7.76578e+08Hello World!
Hello World!7.0177e+08Hello World!
Hello World!6.06868e+08Hello World!
Hello World!4.94732e+08Hello World!
Hello World!3.58087e+08Hello World!
Hello World!2.16495e+08Hello World!
Hello World!7.51026e+07Hello World!
Hello World!-7.35308e+07Hello World!
Hello World!-2.15122e+08Hello World!
Hello World!-3.511e+08Hello World!
Hello World!-4.64955e+08Hello World!
Hello World!-5.55882e+08Hello World!
Hello World!-6.23402e+08Hello World!
Hello World!-6.6667e+08Hello World!
Hello World!-6.91983e+08Hello World!
Hello World!-6.97947e+08Hello World!
Hello World!-6.81322e+08Hello World!
Hello World!-6.44397e+08Hello World!
Hello World!-5.79392e+08Hello World!
Hello World!-4.85523e+08Hello World!
Hello World!-3.71782e+08Hello World!
Hello World!-2.33369e+08Hello World!
Hello World!-8.40599e+07Hello World!
Hello World!6.89579e+07Hello World!
Hello World!2.27852e+08Hello World!
Hello World!3.72678e+08Hello World!
Hello World!5.06114e+08Hello World!
Hello World!6.2517e+08Hello World!
Hello World!7.27836e+08Hello World!
Hello World!8.07932e+08Hello World!
Hello World!8.73303e+08Hello World!
Hello World!9.16489e+08Hello World!
Hello World!9.25901e+08Hello World!
Hello World!9.20304e+08Hello World!
Hello World!8.96002e+08Hello World!
Hello World!8.53317e+08Hello World!
Hello World!7.89031e+08Hello World!
Hello World!7.22929e+08Hello World!
Hello World!6.24207e+08Hello World!
Hello World!5.02108e+08Hello World!
Hello World!3.65753e+08Hello World!
Hello World!2.24326e+08Hello World!
Hello World!6.55907e+07Hello World!
Hello World!-8.66919e+07Hello World!
Hello World!-2.30087e+08Hello World!
Hello World!-3.64848e+08Hello World!
Hello World!-4.85751e+08Hello World!
Hello World!-5.84472e+08Hello World!
Hello World!-6.53621e+08Hello World!
Hello World!-7.05724e+08Hello World!
Hello World!-7.26325e+08Hello World!
Hello World!-7.24483e+08Hello World!
Hello World!-6.96196e+08Hello World!
Hello World!-6.44772e+08Hello World!
Hello World!-5.69822e+08Hello World!
Hello World!-4.7959e+08Hello World!
Hello World!-3.83817e+08Hello World!
Hello World!-2.72396e+08Hello World!
Hello World!-1.55788e+08Hello World!
Hello World!-4.07803e+07Hello World!
Hello World!6.92783e+07Hello World!
Hello World!1.57041e+08Hello World!
Hello World!2.48718e+08Hello World!
Hello World!3.44623e+08Hello World!
Hello World!4.38788e+08Hello World!
Hello World!5.20931e+08Hello World!
Hello World!5.92796e+08Hello World!
Hello World!6.63222e+08Hello World!
Hello World!7.05769e+08Hello World!
Hello World!7.39337e+08Hello World!
Hello World!7.65436e+08Hello World!
Hello World!7.7263e+08Hello World!
Hello World!7.62593e+08Hello World!
Hello World!7.33004e+08Hello World!
Hello World!6.82223e+08Hello World!
Hello World!6.10646e+08Hello World!
Hello World!5.23042e+08Hello World!
Hello World!4.11229e+08Hello World!
Hello World!2.8995e+08Hello World!
Hello World!1.54224e+08Hello World!
Hello World!2.0298e+07Hello World!
Hello World!-1.00382e+08Hello World!
Hello World!-2.04559e+08Hello World!
Hello World!-2.7767e+08Hello World!
Hello World!-3.27088e+08Hello World!
Hello World!-3.53565e+08Hello World!
Hello World!-3.61529e+08Hello World!
Hello World!-3.47742e+08Hello World!
Hello World!-3.16615e+08Hello World!
Hello World!-2.7235e+08Hello World!
Hello World!-2.16999e+08Hello World!
Hello World!-1.5878e+08Hello World!
Hello World!-8.96857e+07Hello World!
Hello World!-6.62338e+06Hello World!
Hello World!7.0858e+07Hello World!
Hello World!1.39046e+08Hello World!
Hello World!2.06857e+08Hello World!
Hello World!2.55861e+08Hello World!
Hello World!3.00728e+08Hello World!
Hello World!3.46963e+08Hello World!
Hello World!3.87792e+08Hello World!
Hello World!4.18808e+08Hello World!
Hello World!4.43778e+08Hello World!
Hello World!4.67995e+08Hello World!
Hello World!4.81308e+08Hello World!
Hello World!4.82569e+08Hello World!
Hello World!4.84464e+08Hello World!
Hello World!4.82393e+08Hello World!
Hello World!4.70308e+08Hello World!
Hello World!4.55537e+08Hello World!
Hello World!4.25327e+08Hello World!
Hello World!3.84124e+08Hello World!
Hello World!3.22752e+08Hello World!
Hello World!2.57493e+08Hello World!
Hello World!1.8842e+08Hello World!
Hello World!1.09684e+08Hello World!
Hello World!3.32937e+07Hello World!
Hello World!-3.29362e+07Hello World!
Hello World!-1.0102e+08Hello World!
Hello World!-1.66666e+08Hello World!
Hello World!-2.24675e+08Hello World!
Hello World!-2.80916e+08Hello World!
Hello World!-3.27208e+08Hello World!
Hello World!-3.62762e+08Hello World!
Hello World!-3.87002e+08Hello World!
Hello World!-4.02552e+08Hello World!
Hello World!-4.01361e+08Hello World!
Hello World!-3.85202e+08Hello World!
Hello World!-3.6043e+08Hello World!
Hello World!-3.213e+08Hello World!
Hello World!-2.67461e+08Hello World!
Hello World!-1.96665e+08Hello World!
Hello World!-1.29151e+08Hello World!
Hello World!-5.16319e+07Hello World!
Hello World!3.11613e+07Hello World!
Hello World!1.07968e+08Hello World!
Hello World!1.8696e+08Hello World!
Hello World!2.63228e+08Hello World!
Hello World!3.28912e+08Hello World!
Hello World!3.75102e+08Hello World!
Hello World!4.1185e+08Hello World!
Hello World!4.3951e+08Hello World!
Hello World!4.50399e+08Hello World!
Hello World!4.40614e+08Hello World!
Hello World!4.23393e+08Hello World!
Hello World!3.97784e+08Hello World!
Hello World!3.60283e+08Hello World!
Hello World!3.06547e+08Hello World!
Hello World!2.46033e+08Hello World!
Hello World!1.81878e+08Hello World!
Hello World!1.16855e+08Hello World!
Hello World!4.87672e+07Hello World!
Hello World!-1.83976e+07Hello World!
Hello World!-1.00337e+08Hello World!
Hello World!-1.70062e+08Hello World!
Hello World!-2.33699e+08Hello World!
Hello World!-2.97518e+08Hello World!
Hello World!-3.54317e+08Hello World!
Hello World!-4.00887e+08Hello World!
Hello World!-4.32784e+08Hello World!
Hello World!-4.42053e+08Hello World!
Hello World!-4.40985e+08Hello World!
Hello World!-4.20131e+08Hello World!
Hello World!-3.83593e+08Hello World!
Hello World!-3.23489e+08Hello World!
Hello World!-2.33768e+08Hello World!
Hello World!-1.27654e+08Hello World!
Hello World!-1.86691e+06Hello World!
Hello World!1.36227e+08Hello World!
Hello World!2.82367e+08Hello World!
Hello World!4.18087e+08Hello World!
Hello World!5.4962e+08Hello World!
Hello World!6.67896e+08Hello World!
Hello World!7.62324e+08Hello World!
Hello World!8.33219e+08Hello World!
Hello World!8.66344e+08Hello World!
Hello World!8.79386e+08Hello World!
Hello World!8.69255e+08Hello World!
Hello World!8.31193e+08Hello World!
Hello World!7.61202e+08Hello World!
Hello World!6.70237e+08Hello World!
Hello World!5.68931e+08Hello World!
Hello World!4.44054e+08Hello World!
Hello World!3.13772e+08Hello World!
Hello World!1.74508e+08Hello World!
Hello World!5.209e+07Hello World!
Hello World!-6.63766e+07Hello World!
Hello World!-1.82234e+08Hello World!
Hello World!-2.91973e+08Hello World!
Hello World!-3.90206e+08Hello World!
Hello World!-4.79008e+08Hello World!
Hello World!-5.599e+08Hello World!
Hello World!-6.338e+08Hello World!
Hello World!-6.93107e+08Hello World!
Hello World!-7.3823e+08Hello World!
Hello World!-7.65437e+08Hello World!
Hello World!-7.74034e+08Hello World!
Hello World!-7.66262e+08Hello World!
Hello World!-7.32503e+08Hello World!
Hello World!-6.81879e+08Hello World!
Hello World!-6.13698e+08Hello World!
Hello World!-5.2945e+08Hello World!
Hello World!-4.41919e+08Hello World!
Hello World!-3.48769e+08Hello World!
Hello World!-2.65404e+08Hello World!
Hello World!-1.7326e+08Hello World!
Hello World!-9.28733e+07Hello World!
Hello World!-2.72235e+07Hello World!
Hello World!3.0151e+07Hello World!
Hello World!7.70278e+07Hello World!
Hello World!1.21748e+08Hello World!
Hello World!1.45385e+08Hello World!
Hello World!1.50797e+08Hello World!
Hello World!1.34549e+08Hello World!
Hello World!9.7367e+07Hello World!
Hello World!4.58406e+07Hello World!
Hello World!-6.01344e+06Hello World!
Hello World!-6.53183e+07Hello World!
Hello World!-1.26436e+08Hello World!
Hello World!-1.88129e+08Hello World!
Hello World!-2.54151e+08Hello World!
Hello World!-3.18683e+08Hello World!
Hello World!-3.89959e+08Hello World!
Hello World!-4.59472e+08Hello World!
Hello World!-5.28059e+08Hello World!
Hello World!-5.96171e+08Hello World!
Hello World!-6.55695e+08Hello World!
Hello World!-6.99239e+08Hello World!
Hello World!-7.37338e+08Hello World!
Hello World!-7.60112e+08Hello World!
Hello World!-7.5566e+08Hello World!
Hello World!-7.38084e+08Hello World!
Hello World!-6.94171e+08Hello World!
Hello World!-6.40657e+08Hello World!
Hello World!-5.76409e+08Hello World!
Hello World!-4.89475e+08Hello World!
Hello World!-3.97098e+08Hello World!
Hello World!-3.12219e+08Hello World!
Hello World!-2.30222e+08Hello World!
Hello World!-1.51461e+08Hello World!
Hello World!-7.9185e+07Hello World!
Hello World!-6.584e+06Hello World!
Hello World!6.07858e+07Hello World!
Hello World!1.34722e+08Hello World!
Hello World!2.11396e+08Hello World!
Hello World!2.81677e+08Hello World!
Hello World!3.43798e+08Hello World!
Hello World!4.00875e+08Hello World!
Hello World!4.59414e+08Hello World!
Hello World!5.11039e+08Hello World!
Hello World!5.63237e+08Hello World!
Hello World!5.97658e+08Hello World!
Hello World!6.05168e+08Hello World!
Hello World!6.05054e+08Hello World!
Hello World!6.05117e+08Hello World!
Hello World!5.99848e+08Hello World!
Hello World!5.83916e+08Hello World!
Hello World!5.54665e+08Hello World!
Hello World!5.08842e+08Hello World!
Hello World!4.56495e+08Hello World!
Hello World!4.00581e+08Hello World!
Hello World!3.2908e+08Hello World!
Hello World!2.51147e+08Hello World!
Hello World!1.7245e+08Hello World!
Hello World!9.30346e+07Hello World!
Hello World!2.52392e+07Hello World!
Hello World!-3.55637e+07Hello World!
Hello World!-7.63041e+07Hello World!
Hello World!-1.13464e+08Hello World!
Hello World!-1.43723e+08Hello World!
Hello World!-1.64691e+08Hello World!
Hello World!-1.80874e+08Hello World!
Hello World!-1.93549e+08Hello World!
Hello World!-2.00774e+08Hello World!
Hello World!-2.02232e+08Hello World!
Hello World!-1.94138e+08Hello World!
Hello World!-1.7763e+08Hello World!
Hello World!-1.57395e+08Hello World!
Hello World!-1.2773e+08Hello World!
Hello World!-1.02335e+08Hello World!
Hello World!-6.79279e+07Hello World!
Hello World!-3.74679e+07Hello World!
Hello World!7.66063e+06Hello World!
Hello World!4.80457e+07Hello World!
Hello World!8.29213e+07Hello World!
Hello World!1.16036e+08Hello World!
Hello World!1.42265e+08Hello World!
Hello World!1.64913e+08Hello World!
Hello World!1.73008e+08Hello World!
Hello World!1.72063e+08Hello World!
Hello World!1.52908e+08Hello World!
Hello World!1.22591e+08Hello World!
Hello World!9.30883e+07Hello World!
Hello World!5.4969e+07Hello World!
Hello World!1.07387e+07Hello World!
Hello World!-4.04359e+07Hello World!
Hello World!-9.44842e+07Hello World!
Hello World!-1.48584e+08Hello World!
Hello World!-1.97563e+08Hello World!
Hello World!-2.34368e+08Hello World!
Hello World!-2.63407e+08Hello World!
Hello World!-2.77945e+08Hello World!
Hello World!-2.80012e+08Hello World!
Hello World!-2.6646e+08Hello World!
Hello World!-2.41925e+08Hello World!
Hello World!-2.01441e+08Hello World!
Hello World!-1.48295e+08Hello World!
Hello World!-9.17369e+07Hello World!
Hello World!-3.02712e+07Hello World!
Hello World!2.52546e+07Hello World!
Hello World!7.82372e+07Hello World!
Hello World!1.31163e+08Hello World!
Hello World!1.76707e+08Hello World!
Hello World!2.18774e+08Hello World!
Hello World!2.57844e+08Hello World!
Hello World!2.94513e+08Hello World!
Hello World!3.32541e+08Hello World!
Hello World!3.65904e+08Hello World!
Hello World!3.98428e+08Hello World!
Hello World!4.39483e+08Hello World!
Hello World!4.71023e+08Hello World!
Hello World!5.01831e+08Hello World!
Hello World!5.31877e+08Hello World!
Hello World!5.49013e+08Hello World!
Hello World!5.5302e+08Hello World!
Hello World!5.43381e+08Hello World!
Hello World!5.32719e+08Hello World!
Hello World!5.11645e+08Hello World!
Hello World!4.86381e+08Hello World!
Hello World!4.4627e+08Hello World!
Hello World!3.94787e+08Hello World!
Hello World!3.45862e+08Hello World!
Hello World!2.97345e+08Hello World!
Hello World!2.39578e+08Hello World!
Hello World!1.92215e+08Hello World!
Hello World!1.53922e+08Hello World!
Hello World!1.24768e+08Hello World!
Hello World!1.06515e+08Hello World!
Hello World!1.03746e+08Hello World!
Hello World!1.18701e+08Hello World!
Hello World!1.45816e+08Hello World!
Hello World!1.87261e+08Hello World!
Hello World!2.33086e+08Hello World!
Hello World!2.71332e+08Hello World!
Hello World!3.11255e+08Hello World!
Hello World!3.46839e+08Hello World!
Hello World!3.80252e+08Hello World!
Hello World!4.09952e+08Hello World!
Hello World!4.257e+08Hello World!
Hello World!4.26896e+08Hello World!
Hello World!4.15782e+08Hello World!
Hello World!3.96062e+08Hello World!
Hello World!3.73668e+08Hello World!
Hello World!3.43007e+08Hello World!
Hello World!3.00238e+08Hello World!
Hello World!2.58488e+08Hello World!
Hello World!2.19058e+08Hello World!
Hello World!1.72984e+08Hello World!
Hello World!1.3115e+08Hello World!
Hello World!1.06738e+08Hello World!
Hello World!8.41601e+07Hello World!
Hello World!5.88625e+07Hello World!
Hello World!2.78513e+07Hello World!
Hello World!-747040Hello World!
Hello World!-2.69624e+07Hello World!
Hello World!-6.05301e+07Hello World!
Hello World!-8.76112e+07Hello World!
Hello World!-1.12719e+08Hello World!
Hello World!-1.34038e+08Hello World!
Hello World!-1.44072e+08Hello World!
Hello World!-1.46086e+08Hello World!
Hello World!-1.26523e+08Hello World!
Hello World!-9.70003e+07Hello World!
Hello World!-4.95214e+07Hello World!
Hello World!1.18748e+07Hello World!
Hello World!8.51654e+07Hello World!
Hello World!1.7198e+08Hello World!
Hello World!2.52702e+08Hello World!
Hello World!3.25783e+08Hello World!
Hello World!3.79296e+08Hello World!
Hello World!4.13962e+08Hello World!
Hello World!4.33869e+08Hello World!
Hello World!4.21606e+08Hello World!
Hello World!3.88505e+08Hello World!
Hello World!3.4882e+08Hello World!
Hello World!2.95152e+08Hello World!
Hello World!2.27182e+08Hello World!
Hello World!1.49296e+08Hello World!
Hello World!6.60673e+07Hello World!
Hello World!-2.3311e+07Hello World!
Hello World!-1.06512e+08Hello World!
Hello World!-1.92151e+08Hello World!
Hello World!-2.6273e+08Hello World!
Hello World!-3.10216e+08Hello World!
Hello World!-3.37033e+08Hello World!
Hello World!-3.50263e+08Hello World!
Hello World!-3.44614e+08Hello World!
Hello World!-3.26338e+08Hello World!
Hello World!-2.95599e+08Hello World!
Hello World!-2.52006e+08Hello World!
Hello World!-2.01575e+08Hello World!
Hello World!-1.5335e+08Hello World!
Hello World!-1.07499e+08Hello World!
Hello World!-5.70937e+07Hello World!
Hello World!-2.38968e+06Hello World!
Hello World!5.68423e+07Hello World!
Hello World!1.17531e+08Hello World!
Hello World!1.84774e+08Hello World!
Hello World!2.63432e+08Hello World!
Hello World!3.52999e+08Hello World!
Hello World!4.40293e+08Hello World!
Hello World!5.19707e+08Hello World!
Hello World!5.91051e+08Hello World!
Hello World!6.42004e+08Hello World!
Hello World!6.74947e+08Hello World!
Hello World!6.77636e+08Hello World!
Hello World!6.51715e+08Hello World!
Hello World!5.94929e+08Hello World!
Hello World!5.21855e+08Hello World!
Hello World!4.38823e+08Hello World!
Hello World!3.40949e+08Hello World!
Hello World!2.3908e+08Hello World!
Hello World!1.29735e+08Hello World!
Hello World!3.26599e+07Hello World!
Hello World!-5.80636e+07Hello World!
Hello World!-1.38413e+08Hello World!
Hello World!-2.10281e+08Hello World!
Hello World!-2.66379e+08Hello World!
Hello World!-3.25384e+08Hello World!
Hello World!-3.75128e+08Hello World!
Hello World!-4.04507e+08Hello World!
Hello World!-4.16094e+08Hello World!
Hello World!-4.06578e+08Hello World!
Hello World!-4.02924e+08Hello World!
Hello World!-3.91424e+08Hello World!
Hello World!-3.8306e+08Hello World!
Hello World!-3.8486e+08Hello World!
Hello World!-3.85224e+08Hello World!
Hello World!-3.92128e+08Hello World!
Hello World!-3.94619e+08Hello World!
Hello World!-4.01327e+08Hello World!
Hello World!-4.0351e+08Hello World!
Hello World!-3.92302e+08Hello World!
Hello World!-3.60867e+08Hello World!
Hello World!-3.23121e+08Hello World!
Hello World!-2.61319e+08Hello World!
Hello World!-2.0966e+08Hello World!
Hello World!-1.66384e+08Hello World!
Hello World!-1.23017e+08Hello World!
Hello World!-9.18757e+07Hello World!
Hello World!-6.91111e+07Hello World!
Hello World!-6.70057e+07Hello World!
Hello World!-8.38043e+07Hello World!
Hello World!-1.12735e+08Hello World!
Hello World!-1.61114e+08Hello World!
Hello World!-2.2771e+08Hello World!
Hello World!-3.03269e+08Hello World!
Hello World!-3.89552e+08Hello World!
Hello World!-4.82897e+08Hello World!
Hello World!-5.81715e+08Hello World!
Hello World!-6.8076e+08Hello World!
Hello World!-7.75644e+08Hello World!
Hello World!-8.52903e+08Hello World!
Hello World!-9.16017e+08Hello World!
Hello World!-9.63064e+08Hello World!
Hello World!-9.90052e+08Hello World!
Hello World!-9.93906e+08Hello World!
Hello World!-9.79791e+08Hello World!
Hello World!-9.64931e+08Hello World!
Hello World!-9.29651e+08Hello World!
Hello World!-8.92638e+08Hello World!
Hello World!-8.56287e+08Hello World!
Hello World!-8.1174e+08Hello World!
Hello World!-7.72953e+08Hello World!
Hello World!-7.27343e+08Hello World!
Hello World!-6.82635e+08Hello World!
Hello World!-6.21717e+08Hello World!
Hello World!-5.48526e+08Hello World!
Hello World!-4.73463e+08Hello World!
Hello World!-3.89107e+08Hello World!
Hello World!-3.11904e+08Hello World!
Hello World!-2.27303e+08Hello World!
Hello World!-1.59673e+08Hello World!
Hello World!-1.02486e+08Hello World!
Hello World!-4.27072e+07Hello World!
Hello World!4.93845e+06Hello World!
Hello World!4.24091e+07Hello World!
Hello World!6.86449e+07Hello World!
Hello World!7.40846e+07Hello World!
Hello World!5.76947e+07Hello World!
Hello World!2.69031e+07Hello World!
Hello World!-2.19525e+07Hello World!
Hello World!-8.59646e+07Hello World!
Hello World!-1.63265e+08Hello World!
Hello World!-2.45871e+08Hello World!
Hello World!-3.2991e+08Hello World!
Hello World!-4.00707e+08Hello World!
Hello World!-4.72277e+08Hello World!
Hello World!-5.35568e+08Hello World!
Hello World!-5.84501e+08Hello World!
Hello World!-6.22838e+08Hello World!
Hello World!-6.4326e+08Hello World!
Hello World!-6.59272e+08Hello World!
Hello World!-6.65791e+08Hello World!
Hello World!-6.71488e+08Hello World!
Hello World!-6.75637e+08Hello World!
Hello World!-6.69951e+08Hello World!
Hello World!-6.64358e+08Hello World!
Hello World!-6.53043e+08Hello World!
Hello World!-6.30979e+08Hello World!
Hello World!-6.07079e+08Hello World!
Hello World!-5.76718e+08Hello World!
Hello World!-5.31506e+08Hello World!
Hello World!-4.74649e+08Hello World!
Hello World!-4.02192e+08Hello World!
Hello World!-3.20193e+08Hello World!
Hello World!-2.46702e+08Hello World!
Hello World!-1.90671e+08Hello World!
Hello World!-1.47604e+08Hello World!
Hello World!-1.20993e+08Hello World!
Hello World!-9.35732e+07Hello World!
Hello World!-7.73658e+07Hello World!
Hello World!-7.89371e+07Hello World!
Hello World!-1.03571e+08Hello World!
Hello World!-1.47834e+08Hello World!
Hello World!-2.02283e+08Hello World!
Hello World!-2.75966e+08Hello World!
Hello World!-3.54602e+08Hello World!
Hello World!-4.36948e+08Hello World!
Hello World!-5.25279e+08Hello World!
Hello World!-6.07931e+08Hello World!
Hello World!-6.89972e+08Hello World!
Hello World!-7.68087e+08Hello World!
Hello World!-8.30417e+08Hello World!
Hello World!-8.87984e+08Hello World!
Hello World!-9.41633e+08Hello World!
Hello World!-9.95197e+08Hello World!
Hello World!-1.05121e+09Hello World!
Hello World!-1.08348e+09Hello World!
Hello World!-1.1136e+09Hello World!
Hello World!-1.13986e+09Hello World!
Hello World!-1.152e+09Hello World!
Hello World!-1.15138e+09Hello World!
Hello World!-1.13743e+09Hello World!
Hello World!-1.10659e+09Hello World!
Hello World!-1.06638e+09Hello World!
Hello World!-1.02008e+09Hello World!
Hello World!-9.53542e+08Hello World!
Hello World!-8.74337e+08Hello World!
Hello World!-7.86811e+08Hello World!
Hello World!-6.78901e+08Hello World!
Hello World!-5.62674e+08Hello World!
Hello World!-4.492e+08Hello World!
Hello World!-3.27172e+08Hello World!
Hello World!-2.22857e+08Hello World!
Hello World!-1.35265e+08Hello World!
Hello World!-6.49594e+07Hello World!
Hello World!-1.82116e+07Hello World!
Hello World!7.80923e+06Hello World!
Hello World!2.38183e+07Hello World!
Hello World!1.76328e+07Hello World!
Hello World!-7.99403e+06Hello World!
Hello World!-4.65287e+07Hello World!
Hello World!-9.25329e+07Hello World!
Hello World!-1.59643e+08Hello World!
Hello World!-2.30209e+08Hello World!
Hello World!-2.94147e+08Hello World!
Hello World!-3.76852e+08Hello World!
Hello World!-4.75933e+08Hello World!
Hello World!-5.69881e+08Hello World!
Hello World!-6.57677e+08Hello World!
Hello World!-7.50822e+08Hello World!
Hello World!-8.38013e+08Hello World!
Hello World!-9.11725e+08Hello World!
Hello World!-9.6668e+08Hello World!
Hello World!-9.88534e+08Hello World!
Hello World!-9.8558e+08Hello World!
Hello World!-9.63208e+08Hello World!
Hello World!-9.27497e+08Hello World!
Hello World!-8.69339e+08Hello World!
Hello World!-7.9272e+08Hello World!
Hello World!-7.05603e+08Hello World!
Hello World!-6.04701e+08Hello World!
Hello World!-4.97931e+08Hello World!
Hello World!-3.86422e+08Hello World!
Hello World!-2.6784e+08Hello World!
Hello World!-1.35423e+08Hello World!
Hello World!-1.53422e+07Hello World!
Hello World!1.0687e+08Hello World!
Hello World!2.15014e+08Hello World!
Hello World!3.06169e+08Hello World!
Hello World!3.68878e+08Hello World!
Hello World!4.15174e+08Hello World!
Hello World!4.24044e+08Hello World!
Hello World!4.03938e+08Hello World!
Hello World!3.63111e+08Hello World!
Hello World!3.08379e+08Hello World!
Hello World!2.32712e+08Hello World!
Hello World!1.44804e+08Hello World!
Hello World!3.82661e+07Hello World!
Hello World!-7.54501e+07Hello World!
Hello World!-1.99212e+08Hello World!
Hello World!-3.27142e+08Hello World!
Hello World!-4.62366e+08Hello World!
Hello World!-6.03234e+08Hello World!
Hello World!-7.42751e+08Hello World!
Hello World!-8.71233e+08Hello World!
Hello World!-9.89776e+08Hello World!
Hello World!-1.09677e+09Hello World!
Hello World!-1.18891e+09Hello World!
Hello World!-1.26139e+09Hello World!
Hello World!-1.3022e+09Hello World!
Hello World!-1.3225e+09Hello World!
Hello World!-1.32791e+09Hello World!
Hello World!-1.31251e+09Hello World!
Hello World!-1.27638e+09Hello World!
Hello World!-1.21012e+09Hello World!
Hello World!-1.12148e+09Hello World!
Hello World!-1.01884e+09Hello World!
Hello World!-9.10486e+08Hello World!
Hello World!-8.00396e+08Hello World!
Hello World!-6.89226e+08Hello World!
Hello World!-5.89137e+08Hello World!
Hello World!-4.90154e+08Hello World!
Hello World!-4.02904e+08Hello World!
Hello World!-3.27483e+08Hello World!
Hello World!-2.66868e+08Hello World!
Hello World!-2.27066e+08Hello World!
Hello World!-2.06805e+08Hello World!
Hello World!-1.98754e+08Hello World!
Hello World!-2.15209e+08Hello World!
Hello World!-2.44719e+08Hello World!
Hello World!-2.93702e+08Hello World!
Hello World!-3.46506e+08Hello World!
Hello World!-4.00164e+08Hello World!
Hello World!-4.51076e+08Hello World!
Hello World!-5.07594e+08Hello World!
Hello World!-5.79093e+08Hello World!
Hello World!-6.5357e+08Hello World!
Hello World!-7.20622e+08Hello World!
Hello World!-7.69459e+08Hello World!
Hello World!-8.13342e+08Hello World!
Hello World!-8.53747e+08Hello World!
Hello World!-8.81828e+08Hello World!
Hello World!-8.99716e+08Hello World!
Hello World!-9.16541e+08Hello World!
Hello World!-9.10581e+08Hello World!
Hello World!-8.96748e+08Hello World!
Hello World!-8.61573e+08Hello World!
Hello World!-8.1464e+08Hello World!
Hello World!-7.45724e+08Hello World!
Hello World!-6.63806e+08Hello World!
Hello World!-5.69449e+08Hello World!
Hello World!-4.57249e+08Hello World!
Hello World!-3.45e+08Hello World!
Hello World!-2.31564e+08Hello World!
Hello World!-9.93983e+07Hello World!
Hello World!2.93487e+07Hello World!
Hello World!1.523e+08Hello World!
Hello World!2.68286e+08Hello World!
Hello World!3.59055e+08Hello World!
Hello World!4.38925e+08Hello World!
Hello World!5.04688e+08Hello World!
Hello World!5.59818e+08Hello World!
Hello World!5.85144e+08Hello World!
Hello World!6.00815e+08Hello World!
Hello World!5.85017e+08Hello World!
Hello World!5.32336e+08Hello World!
Hello World!4.67476e+08Hello World!
Hello World!3.843e+08Hello World!
Hello World!2.873e+08Hello World!
Hello World!1.86982e+08Hello World!
Hello World!8.03402e+07Hello World!
Hello World!-2.06496e+07Hello World!
Hello World!-1.17262e+08Hello World!
Hello World!-2.20504e+08Hello World!
Hello World!-3.2027e+08Hello World!
Hello World!-4.11559e+08Hello World!
Hello World!-4.87746e+08Hello World!
Hello World!-5.54636e+08Hello World!
Hello World!-6.17973e+08Hello World!
Hello World!-6.73041e+08Hello World!
Hello World!-7.09638e+08Hello World!
Hello World!-7.29538e+08Hello World!
Hello World!-7.32836e+08Hello World!
Hello World!-7.24797e+08Hello World!
Hello World!-6.98922e+08Hello World!
Hello World!-6.57341e+08Hello World!
Hello World!-6.19443e+08Hello World!
Hello World!-5.70528e+08Hello World!
Hello World!-5.23333e+08Hello World!
Hello World!-4.70161e+08Hello World!
Hello World!-4.12649e+08Hello World!
Hello World!-3.57804e+08Hello World!
Hello World!-3.07336e+08Hello World!
Hello World!-2.61189e+08Hello World!
Hello World!-2.03993e+08Hello World!
Hello World!-1.58263e+08Hello World!
Hello World!-1.28518e+08Hello World!
Hello World!-1.16564e+08Hello World!
Hello World!-1.0894e+08Hello World!
Hello World!-1.00177e+08Hello World!
Hello World!-1.08987e+08Hello World!
Hello World!-1.35469e+08Hello World!
Hello World!-1.62177e+08Hello World!
Hello World!-1.97615e+08Hello World!
Hello World!-2.32341e+08Hello World!
Hello World!-2.90136e+08Hello World!
Hello World!-3.48045e+08Hello World!
Hello World!-4.10178e+08Hello World!
Hello World!-4.75583e+08Hello World!
Hello World!-5.31663e+08Hello World!
Hello World!-5.77528e+08Hello World!
Hello World!-6.21992e+08Hello World!
Hello World!-6.65334e+08Hello World!
Hello World!-7.04501e+08Hello World!
Hello World!-7.30113e+08Hello World!
Hello World!-7.4189e+08Hello World!
Hello World!-7.55445e+08Hello World!
Hello World!-7.45644e+08Hello World!
Hello World!-7.24488e+08Hello World!
Hello World!-7.03125e+08Hello World!
Hello World!-6.69487e+08Hello World!
Hello World!-6.25782e+08Hello World!
Hello World!-5.78098e+08Hello World!
Hello World!-5.30311e+08Hello World!
Hello World!-4.79837e+08Hello World!
Hello World!-4.16611e+08Hello World!
Hello World!-3.53268e+08Hello World!
Hello World!-3.04551e+08Hello World!
Hello World!-2.6325e+08Hello World!
Hello World!-2.37132e+08Hello World!
Hello World!-2.29011e+08Hello World!
Hello World!-2.42338e+08Hello World!
Hello World!-2.60725e+08Hello World!
Hello World!-2.88804e+08Hello World!
Hello World!-3.17701e+08Hello World!
Hello World!-3.49494e+08Hello World!
Hello World!-3.77347e+08Hello World!
Hello World!-4.00107e+08Hello World!
Hello World!-4.09902e+08Hello World!
Hello World!-4.18083e+08Hello World!
Hello World!-4.16905e+08Hello World!
Hello World!-4.06942e+08Hello World!
Hello World!-3.88009e+08Hello World!
Hello World!-3.719e+08Hello World!
Hello World!-3.56927e+08Hello World!
Hello World!-3.35851e+08Hello World!
Hello World!-3.16091e+08Hello World!
Hello World!-3.01525e+08Hello World!
Hello World!-3.04271e+08Hello World!
Hello World!-3.02953e+08Hello World!
Hello World!-3.03402e+08Hello World!
Hello World!-2.9755e+08Hello World!
Hello World!-2.7334e+08Hello World!
Hello World!-2.42372e+08Hello World!
Hello World!-2.09746e+08Hello World!
Hello World!-1.68624e+08Hello World!
Hello World!-1.14891e+08Hello World!
Hello World!-5.96584e+07Hello World!
Hello World!-5.63177e+06Hello World!
Hello World!4.39452e+07Hello World!
Hello World!7.0632e+07Hello World!
Hello World!8.48751e+07Hello World!
Hello World!7.70322e+07Hello World!
Hello World!6.2254e+07Hello World!
Hello World!2.7374e+07Hello World!
Hello World!-2.23187e+07Hello World!
Hello World!-8.29371e+07Hello World!
Hello World!-1.4072e+08Hello World!
Hello World!-2.14562e+08Hello World!
Hello World!-2.81015e+08Hello World!
Hello World!-3.50778e+08Hello World!
Hello World!-4.17698e+08Hello World!
Hello World!-4.68856e+08Hello World!
Hello World!-5.06745e+08Hello World!
Hello World!-5.20262e+08Hello World!
Hello World!-5.30636e+08Hello World!
Hello World!-5.26939e+08Hello World!
Hello World!-5.26248e+08Hello World!
Hello World!-5.22364e+08Hello World!
Hello World!-5.3633e+08Hello World!
Hello World!-5.54299e+08Hello World!
Hello World!-5.72532e+08Hello World!
Hello World!-6.01684e+08Hello World!
Hello World!-6.38157e+08Hello World!
Hello World!-6.61922e+08Hello World!
Hello World!-6.85769e+08Hello World!
Hello World!-6.99538e+08Hello World!
Hello World!-6.99428e+08Hello World!
Hello World!-6.91617e+08Hello World!
Hello World!-6.69153e+08Hello World!
Hello World!-6.42326e+08Hello World!
Hello World!-6.10452e+08Hello World!
Hello World!-5.89952e+08Hello World!
Hello World!-5.76035e+08Hello World!
Hello World!-5.72098e+08Hello World!
Hello World!-5.7046e+08Hello World!
Hello World!-5.79179e+08Hello World!
Hello World!-5.93596e+08Hello World!
Hello World!-6.19421e+08Hello World!
Hello World!-6.49627e+08Hello World!
Hello World!-6.79072e+08Hello World!
Hello World!-7.12693e+08Hello World!
Hello World!-7.40362e+08Hello World!
Hello World!-7.51421e+08Hello World!
Hello World!-7.40466e+08Hello World!
Hello World!-7.18814e+08Hello World!
Hello World!-6.76042e+08Hello World!
Hello World!-6.13927e+08Hello World!
Hello World!-5.5839e+08Hello World!
Hello World!-5.02481e+08Hello World!
Hello World!-4.50122e+08Hello World!
Hello World!-4.03436e+08Hello World!
Hello World!-3.61036e+08Hello World!
Hello World!-3.3511e+08Hello World!
Hello World!-3.29976e+08Hello World!
Hello World!-3.41312e+08Hello World!
Hello World!-3.58388e+08Hello World!
Hello World!-3.67412e+08Hello World!
Hello World!-3.80468e+08Hello World!
Hello World!-3.9548e+08Hello World!
Hello World!-4.09531e+08Hello World!
Hello World!-4.15269e+08Hello World!
Hello World!-4.11624e+08Hello World!
Hello World!-3.869e+08Hello World!
Hello World!-3.49979e+08Hello World!
Hello World!-3.11592e+08Hello World!
Hello World!-2.54922e+08Hello World!
Hello World!-1.87938e+08Hello World!
Hello World!-1.33946e+08Hello World!
Hello World!-9.28978e+07Hello World!
Hello World!-7.44627e+07Hello World!
Hello World!-4.91992e+07Hello World!
Hello World!-3.13596e+07Hello World!
Hello World!-2.81659e+07Hello World!
Hello World!-3.17908e+07Hello World!
Hello World!-4.10661e+07Hello World!
Hello World!-5.11566e+07Hello World!
Hello World!-6.19908e+07Hello World!
Hello World!-7.76056e+07Hello World!
Hello World!-9.11626e+07Hello World!
Hello World!-9.43762e+07Hello World!
Hello World!-9.01343e+07Hello World!
Hello World!-7.40437e+07Hello World!
Hello World!-5.54705e+07Hello World!
Hello World!-3.19366e+07Hello World!
Hello World!-1.49379e+07Hello World!
Hello World!-6.50758e+06Hello World!
Hello World!7.02842e+06Hello World!
Hello World!1.4743e+07Hello World!
Hello World!9.5224e+06Hello World!
Hello World!24706Hello World!
Hello World!-2.30813e+07Hello World!
Hello World!-4.7527e+07Hello World!
Hello World!-8.12962e+07Hello World!
Hello World!-1.19223e+08Hello World!
Hello World!-1.54586e+08Hello World!
Hello World!-1.87601e+08Hello World!
Hello World!-2.10814e+08Hello World!
Hello World!-2.38237e+08Hello World!
Hello World!-2.79895e+08Hello World!
Hello World!-3.24246e+08Hello World!
Hello World!-3.54586e+08Hello World!
Hello World!-3.85655e+08Hello World!
Hello World!-4.18627e+08Hello World!
Hello World!-4.53115e+08Hello World!
Hello World!-4.87968e+08Hello World!
Hello World!-5.00819e+08Hello World!
Hello World!-5.16408e+08Hello World!
Hello World!-5.153e+08Hello World!
Hello World!-5.01678e+08Hello World!
Hello World!-4.96094e+08Hello World!
Hello World!-4.82618e+08Hello World!
Hello World!-4.51707e+08Hello World!
Hello World!-4.17288e+08Hello World!
Hello World!-3.82531e+08Hello World!
Hello World!-3.4969e+08Hello World!
Hello World!-3.08474e+08Hello World!
Hello World!-2.5989e+08Hello World!
Hello World!-2.04506e+08Hello World!
Hello World!-1.61816e+08Hello World!
Hello World!-1.39e+08Hello World!
Hello World!-1.21209e+08Hello World!
Hello World!-1.16112e+08Hello World!
Hello World!-1.36663e+08Hello World!
Hello World!-1.5875e+08Hello World!
Hello World!-1.97182e+08Hello World!
Hello World!-2.44923e+08Hello World!
Hello World!-3.0103e+08Hello World!
Hello World!-3.47948e+08Hello World!
Hello World!-4.00211e+08Hello World!
Hello World!-4.54813e+08Hello World!
Hello World!-4.93337e+08Hello World!
Hello World!-5.26604e+08Hello World!
Hello World!-5.55335e+08Hello World!
Hello World!-5.86202e+08Hello World!
Hello World!-6.09191e+08Hello World!
Hello World!-6.21524e+08Hello World!
Hello World!-6.20562e+08Hello World!
Hello World!-6.0011e+08Hello World!
Hello World!-5.65935e+08Hello World!
Hello World!-5.0993e+08Hello World!
Hello World!-4.49539e+08Hello World!
Hello World!-3.68607e+08Hello World!
Hello World!-2.67558e+08Hello World!
Hello World!-1.46119e+08Hello World!
Hello World!704455Hello World!
Hello World!1.59661e+08Hello World!
Hello World!3.2029e+08Hello World!
Hello World!4.81128e+08Hello World!
Hello World!6.3451e+08Hello World!
Hello World!7.71616e+08Hello World!
Hello World!8.89467e+08Hello World!
Hello World!9.78559e+08Hello World!
Hello World!1.02892e+09Hello World!
Hello World!1.05e+09Hello World!
Hello World!1.04732e+09Hello World!
Hello World!1.00935e+09Hello World!
Hello World!9.47663e+08Hello World!
Hello World!8.59964e+08Hello World!
Hello World!7.60015e+08Hello World!
Hello World!6.43355e+08Hello World!
Hello World!5.07082e+08Hello World!
Hello World!3.59946e+08Hello World!
Hello World!2.21182e+08Hello World!
Hello World!9.21174e+07Hello World!
Hello World!-1.65291e+07Hello World!
Hello World!-1.14843e+08Hello World!
Hello World!-2.12338e+08Hello World!
Hello World!-3.06404e+08Hello World!
Hello World!-3.90629e+08Hello World!
Hello World!-4.70669e+08Hello World!
Hello World!-5.20326e+08Hello World!
Hello World!-5.49896e+08Hello World!
Hello World!-5.71156e+08Hello World!
Hello World!-5.85382e+08Hello World!
Hello World!-5.9414e+08Hello World!
Hello World!-5.8025e+08Hello World!
Hello World!-5.55049e+08Hello World!
Hello World!-5.0435e+08Hello World!
Hello World!-4.36157e+08Hello World!
Hello World!-3.34347e+08Hello World!
Hello World!-2.10597e+08Hello World!
Hello World!-5.58528e+07Hello World!
Hello World!1.04201e+08Hello World!
Hello World!2.91742e+08Hello World!
Hello World!4.72476e+08Hello World!
Hello World!6.28464e+08Hello World!
Hello World!7.64564e+08Hello World!
Hello World!8.74011e+08Hello World!
Hello World!9.49833e+08Hello World!
Hello World!9.80525e+08Hello World!
Hello World!9.56092e+08Hello World!
Hello World!8.85181e+08Hello World!
Hello World!7.86646e+08Hello World!
Hello World!6.59773e+08Hello World!
Hello World!5.07683e+08Hello World!
Hello World!3.56961e+08Hello World!
Hello World!2.04763e+08Hello World!
Hello World!6.43931e+07Hello World!
Hello World!-8.86211e+07Hello World!
Hello World!-2.30786e+08Hello World!
Hello World!-3.52062e+08Hello World!
Hello World!-4.75214e+08Hello World!
Hello World!-5.87168e+08Hello World!
Hello World!-6.82426e+08Hello World!
Hello World!-7.62281e+08Hello World!
Hello World!-8.18268e+08Hello World!
Hello World!-8.54005e+08Hello World!
Hello World!-8.65918e+08Hello World!
Hello World!-8.55881e+08Hello World!
Hello World!-8.25489e+08Hello World!
Hello World!-7.81607e+08Hello World!
Hello World!-7.05702e+08Hello World!
Hello World!-6.07142e+08Hello World!
Hello World!-4.82669e+08Hello World!
Hello World!-3.39157e+08Hello World!
Hello World!-1.8852e+08Hello World!
Hello World!-2.64483e+07Hello World!
Hello World!1.39208e+08Hello World!
Hello World!3.1908e+08Hello World!
Hello World!5.02384e+08Hello World!
Hello World!6.57681e+08Hello World!
Hello World!7.98868e+08Hello World!
Hello World!9.15658e+08Hello World!
Hello World!9.95505e+08Hello World!
Hello World!1.04553e+09Hello World!
Hello World!1.06492e+09Hello World!
Hello World!1.04328e+09Hello World!
Hello World!9.66617e+08Hello World!
Hello World!8.44254e+08Hello World!
Hello World!7.00286e+08Hello World!
Hello World!5.37553e+08Hello World!
Hello World!3.63934e+08Hello World!
Hello World!1.85128e+08Hello World!
Hello World!9.60935e+06Hello World!
Hello World!-1.47241e+08Hello World!
Hello World!-2.96367e+08Hello World!
Hello World!-4.33648e+08Hello World!
Hello World!-5.50774e+08Hello World!
Hello World!-6.50395e+08Hello World!
Hello World!-7.31441e+08Hello World!
Hello World!-7.79388e+08Hello World!
Hello World!-8.03434e+08Hello World!
Hello World!-8.16577e+08Hello World!
Hello World!-7.99895e+08Hello World!
Hello World!-7.51769e+08Hello World!
Hello World!-6.90793e+08Hello World!
Hello World!-6.17792e+08Hello World!
Hello World!-5.31128e+08Hello World!
Hello World!-4.27673e+08Hello World!
Hello World!-3.21977e+08Hello World!
Hello World!-2.07876e+08Hello World!
Hello World!-8.9105e+07Hello World!
Hello World!2.69939e+07Hello World!
Hello World!1.23315e+08Hello World!
Hello World!2.11089e+08Hello World!
Hello World!2.89608e+08Hello World!
Hello World!3.62544e+08Hello World!
Hello World!4.03772e+08Hello World!
Hello World!4.07908e+08Hello World!
Hello World!3.80347e+08Hello World!
Hello World!3.07948e+08Hello World!
Hello World!2.02014e+08Hello World!
Hello World!6.55839e+07Hello World!
Hello World!-8.04655e+07Hello World!
Hello World!-2.46922e+08Hello World!
Hello World!-4.15827e+08Hello World!
Hello World!-5.66959e+08Hello World!
Hello World!-6.97843e+08Hello World!
Hello World!-8.10595e+08Hello World!
Hello World!-9.02216e+08Hello World!
Hello World!-9.62846e+08Hello World!
Hello World!-1.0079e+09Hello World!
Hello World!-1.02315e+09Hello World!
Hello World!-1.02999e+09Hello World!
Hello World!-1.00565e+09Hello World!
Hello World!-9.71573e+08Hello World!
Hello World!-9.22947e+08Hello World!
Hello World!-8.73794e+08Hello World!
Hello World!-8.14394e+08Hello World!
Hello World!-7.48411e+08Hello World!
Hello World!-6.681e+08Hello World!
Hello World!-5.97266e+08Hello World!
Hello World!-5.22642e+08Hello World!
Hello World!-4.40853e+08Hello World!
Hello World!-3.51277e+08Hello World!
Hello World!-2.43433e+08Hello World!
Hello World!-1.38282e+08Hello World!
Hello World!-3.22116e+07Hello World!
Hello World!5.69244e+07Hello World!
Hello World!1.48126e+08Hello World!
Hello World!2.23611e+08Hello World!
Hello World!2.85784e+08Hello World!
Hello World!3.34252e+08Hello World!
Hello World!3.45519e+08Hello World!
Hello World!3.37648e+08Hello World!
Hello World!2.85617e+08Hello World!
Hello World!2.04826e+08Hello World!
Hello World!1.02194e+08Hello World!
Hello World!-9.05345e+06Hello World!
Hello World!-1.21974e+08Hello World!
Hello World!-2.42468e+08Hello World!
Hello World!-3.63801e+08Hello World!
Hello World!-4.58236e+08Hello World!
Hello World!-5.29384e+08Hello World!
Hello World!-5.78506e+08Hello World!
Hello World!-6.19972e+08Hello World!
Hello World!-6.5294e+08Hello World!
Hello World!-6.87026e+08Hello World!
Hello World!-7.03138e+08Hello World!
Hello World!-7.01077e+08Hello World!
Hello World!-6.99453e+08Hello World!
Hello World!-6.86346e+08Hello World!
Hello World!-6.69134e+08Hello World!
Hello World!-6.48581e+08Hello World!
Hello World!-6.24862e+08Hello World!
Hello World!-5.82216e+08Hello World!
Hello World!-5.3043e+08Hello World!
Hello World!-4.77591e+08Hello World!
Hello World!-4.11178e+08Hello World!
Hello World!-3.50384e+08Hello World!
Hello World!-2.682e+08Hello World!
Hello World!-1.7321e+08Hello World!
Hello World!-7.59041e+07Hello World!
Hello World!2.22466e+07Hello World!
Hello World!1.07044e+08Hello World!
Hello World!1.7878e+08Hello World!
Hello World!2.24408e+08Hello World!
Hello World!2.37231e+08Hello World!
Hello World!2.13709e+08Hello World!
Hello World!1.58343e+08Hello World!
Hello World!7.46962e+07Hello World!
Hello World!-2.75027e+07Hello World!
Hello World!-1.36272e+08Hello World!
Hello World!-2.52192e+08Hello World!
Hello World!-3.75515e+08Hello World!
Hello World!-4.75787e+08Hello World!
Hello World!-5.6841e+08Hello World!
Hello World!-6.38386e+08Hello World!
Hello World!-6.76419e+08Hello World!
Hello World!-6.90161e+08Hello World!
Hello World!-6.78628e+08Hello World!
Hello World!-6.48034e+08Hello World!
Hello World!-6.1304e+08Hello World!
Hello World!-5.78256e+08Hello World!
Hello World!-5.31401e+08Hello World!
Hello World!-4.9737e+08Hello World!
Hello World!-4.84592e+08Hello World!
Hello World!-4.79195e+08Hello World!
Hello World!-4.79891e+08Hello World!
Hello World!-4.90948e+08Hello World!
Hello World!-4.86886e+08Hello World!
Hello World!-4.90762e+08Hello World!
Hello World!-4.90854e+08Hello World!
Hello World!-4.85744e+08Hello World!
Hello World!-4.78909e+08Hello World!
Hello World!-4.51813e+08Hello World!
Hello World!-4.20486e+08Hello World!
Hello World!-3.84585e+08Hello World!
Hello World!-3.43918e+08Hello World!
Hello World!-2.95416e+08Hello World!
Hello World!-2.56791e+08Hello World!
Hello World!-2.3739e+08Hello World!
Hello World!-2.24045e+08Hello World!
Hello World!-2.29161e+08Hello World!
Hello World!-2.4768e+08Hello World!
Hello World!-2.76118e+08Hello World!
Hello World!-3.13569e+08Hello World!
Hello World!-3.6479e+08Hello World!
Hello World!-4.23791e+08Hello World!
Hello World!-4.76363e+08Hello World!
Hello World!-5.23321e+08Hello World!
Hello World!-5.66504e+08Hello World!
Hello World!-5.89887e+08Hello World!
Hello World!-5.95472e+08Hello World!
Hello World!-6.06755e+08Hello World!
Hello World!-6.08156e+08Hello World!
Hello World!-5.95177e+08Hello World!
Hello World!-5.68694e+08Hello World!
Hello World!-5.58447e+08Hello World!
Hello World!-5.56709e+08Hello World!
Hello World!-5.48517e+08Hello World!
Hello World!-5.49212e+08Hello World!
Hello World!-5.65241e+08Hello World!
Hello World!-5.65235e+08Hello World!
Hello World!-5.60369e+08Hello World!
Hello World!-5.44809e+08Hello World!
Hello World!-5.29861e+08Hello World!
Hello World!-5.06605e+08Hello World!
Hello World!-4.76092e+08Hello World!
Hello World!-4.29247e+08Hello World!
Hello World!-3.64617e+08Hello World!
Hello World!-2.88047e+08Hello World!
Hello World!-1.94517e+08Hello World!
Hello World!-8.60008e+07Hello World!
Hello World!1.93576e+07Hello World!
Hello World!1.20171e+08Hello World!
Hello World!2.07225e+08Hello World!
Hello World!2.72756e+08Hello World!
Hello World!3.20543e+08Hello World!
Hello World!3.27869e+08Hello World!
Hello World!3.0617e+08Hello World!
Hello World!2.46935e+08Hello World!
Hello World!1.7301e+08Hello World!
Hello World!7.16408e+07Hello World!
Hello World!-3.57757e+07Hello World!
Hello World!-1.31888e+08Hello World!
Hello World!-2.18085e+08Hello World!
Hello World!-2.92796e+08Hello World!
Hello World!-3.51125e+08Hello World!
Hello World!-4.03573e+08Hello World!
Hello World!-4.53172e+08Hello World!
Hello World!-4.8844e+08Hello World!
Hello World!-5.25486e+08Hello World!
Hello World!-5.64489e+08Hello World!
Hello World!-6.06181e+08Hello World!
Hello World!-6.34517e+08Hello World!
Hello World!-6.58636e+08Hello World!
Hello World!-6.79962e+08Hello World!
Hello World!-6.98825e+08Hello World!
Hello World!-7.02169e+08Hello World!
Hello World!-6.89993e+08Hello World!
Hello World!-6.62063e+08Hello World!
Hello World!-6.17698e+08Hello World!
Hello World!-5.60073e+08Hello World!
Hello World!-4.9089e+08Hello World!
Hello World!-4.14042e+08Hello World!
Hello World!-3.17136e+08Hello World!
Hello World!-2.06978e+08Hello World!
Hello World!-9.82811e+07Hello World!
Hello World!6.50613e+06Hello World!
Hello World!1.03812e+08Hello World!
Hello World!1.89986e+08Hello World!
Hello World!2.48736e+08Hello World!
Hello World!3.04889e+08Hello World!
Hello World!3.45952e+08Hello World!
Hello World!3.59412e+08Hello World!
Hello World!3.415e+08Hello World!
Hello World!3.00367e+08Hello World!
Hello World!2.52754e+08Hello World!
Hello World!1.96902e+08Hello World!
Hello World!1.51257e+08Hello World!
Hello World!1.06199e+08Hello World!
Hello World!5.53173e+07Hello World!
Hello World!7.25395e+06Hello World!
Hello World!-5.20471e+07Hello World!
Hello World!-1.09228e+08Hello World!
Hello World!-1.65805e+08Hello World!
Hello World!-2.20068e+08Hello World!
Hello World!-2.77959e+08Hello World!
Hello World!-3.46269e+08Hello World!
Hello World!-4.24518e+08Hello World!
Hello World!-5.03012e+08Hello World!
Hello World!-5.91259e+08Hello World!
Hello World!-6.85634e+08Hello World!
Hello World!-7.76304e+08Hello World!
Hello World!-8.65977e+08Hello World!
Hello World!-9.40942e+08Hello World!
Hello World!-9.9702e+08Hello World!
Hello World!-1.03186e+09Hello World!
Hello World!-1.0477e+09Hello World!
Hello World!-1.0379e+09Hello World!
Hello World!-1.00087e+09Hello World!
Hello World!-9.31401e+08Hello World!
Hello World!-8.31336e+08Hello World!
Hello World!-7.1151e+08Hello World!
Hello World!-5.79012e+08Hello World!
Hello World!-4.37044e+08Hello World!
Hello World!-2.98524e+08Hello World!
Hello World!-1.71848e+08Hello World!
Hello World!-7.23901e+07Hello World!
Hello World!7.43512e+06Hello World!
Hello World!5.882e+07Hello World!
Hello World!8.10421e+07Hello World!
Hello World!7.81097e+07Hello World!
Hello World!6.68632e+07Hello World!
Hello World!3.30088e+07Hello World!
Hello World!-1.13327e+07Hello World!
Hello World!-7.18936e+07Hello World!
Hello World!-1.48174e+08Hello World!
Hello World!-2.18976e+08Hello World!
Hello World!-2.8695e+08Hello World!
Hello World!-3.47011e+08Hello World!
Hello World!-3.97788e+08Hello World!
Hello World!-4.46991e+08Hello World!
Hello World!-4.93313e+08Hello World!
Hello World!-5.25827e+08Hello World!
Hello World!-5.65197e+08Hello World!
Hello World!-5.90742e+08Hello World!
Hello World!-6.15735e+08Hello World!
Hello World!-6.29661e+08Hello World!
Hello World!-6.30832e+08Hello World!
Hello World!-6.20261e+08Hello World!
Hello World!-5.94402e+08Hello World!
Hello World!-5.54054e+08Hello World!
Hello World!-4.96012e+08Hello World!
Hello World!-4.1228e+08Hello World!
Hello World!-3.05431e+08Hello World!
Hello World!-1.91796e+08Hello World!
Hello World!-7.47845e+07Hello World!
Hello World!4.53697e+07Hello World!
Hello World!1.64966e+08Hello World!
Hello World!2.74939e+08Hello World!
Hello World!3.77278e+08Hello World!
Hello World!4.56109e+08Hello World!
Hello World!5.15723e+08Hello World!
Hello World!5.48942e+08Hello World!
Hello World!5.61583e+08Hello World!
Hello World!5.49569e+08Hello World!
Hello World!5.02493e+08Hello World!
Hello World!4.41366e+08Hello World!
Hello World!3.6458e+08Hello World!
Hello World!2.69455e+08Hello World!
Hello World!1.64375e+08Hello World!
Hello World!5.84327e+07Hello World!
Hello World!-3.81186e+07Hello World!
Hello World!-1.28092e+08Hello World!
Hello World!-2.21256e+08Hello World!
Hello World!-3.10956e+08Hello World!
Hello World!-3.93242e+08Hello World!
Hello World!-4.66992e+08Hello World!
Hello World!-5.43441e+08Hello World!
Hello World!-6.10875e+08Hello World!
Hello World!-6.66856e+08Hello World!
Hello World!-7.12134e+08Hello World!
Hello World!-7.49228e+08Hello World!
Hello World!-7.70298e+08Hello World!
Hello World!-7.782e+08Hello World!
Hello World!-7.80422e+08Hello World!
Hello World!-7.62869e+08Hello World!
Hello World!-7.28753e+08Hello World!
Hello World!-6.74658e+08Hello World!
Hello World!-6.02294e+08Hello World!
Hello World!-5.09795e+08Hello World!
Hello World!-3.96479e+08Hello World!
Hello World!-2.71192e+08Hello World!
Hello World!-1.3433e+08Hello World!
Hello World!2.62208e+06Hello World!
Hello World!1.50231e+08Hello World!
Hello World!2.86767e+08Hello World!
Hello World!3.96649e+08Hello World!
Hello World!4.7928e+08Hello World!
Hello World!5.27291e+08Hello World!
Hello World!5.46881e+08Hello World!
Hello World!5.38125e+08Hello World!
Hello World!4.98337e+08Hello World!
Hello World!4.22116e+08Hello World!
Hello World!3.11841e+08Hello World!
Hello World!1.95095e+08Hello World!
Hello World!6.38042e+07Hello World!
Hello World!-8.45516e+07Hello World!
Hello World!-2.47252e+08Hello World!
Hello World!-4.04262e+08Hello World!
Hello World!-5.5472e+08Hello World!
Hello World!-7.10055e+08Hello World!
Hello World!-8.5477e+08Hello World!
Hello World!-9.83267e+08Hello World!
Hello World!-1.09985e+09Hello World!
Hello World!-1.21152e+09Hello World!
Hello World!-1.30796e+09Hello World!
Hello World!-1.38135e+09Hello World!
Hello World!-1.42442e+09Hello World!
Hello World!-1.44941e+09Hello World!
Hello World!-1.4436e+09Hello World!
Hello World!-1.40633e+09Hello World!
Hello World!-1.33327e+09Hello World!
Hello World!-1.21933e+09Hello World!
Hello World!-1.06622e+09Hello World!
Hello World!-8.75932e+08Hello World!
Hello World!-6.52516e+08Hello World!
Hello World!-4.03065e+08Hello World!
Hello World!-1.29916e+08Hello World!
Hello World!1.56146e+08Hello World!
Hello World!4.33638e+08Hello World!
Hello World!6.86168e+08Hello World!
Hello World!9.06337e+08Hello World!
Hello World!1.08743e+09Hello World!
Hello World!1.22226e+09Hello World!
Hello World!1.29494e+09Hello World!
Hello World!1.31084e+09Hello World!
Hello World!1.26783e+09Hello World!
Hello World!1.16929e+09Hello World!
Hello World!1.04107e+09Hello World!
Hello World!8.80983e+08Hello World!
Hello World!7.01178e+08Hello World!
Hello World!5.05569e+08Hello World!
Hello World!2.9639e+08Hello World!
Hello World!9.23018e+07Hello World!
Hello World!-1.06134e+08Hello World!
Hello World!-2.96917e+08Hello World!
Hello World!-4.73838e+08Hello World!
Hello World!-6.24e+08Hello World!
Hello World!-7.45835e+08Hello World!
Hello World!-8.52106e+08Hello World!
Hello World!-9.24698e+08Hello World!
Hello World!-9.75027e+08Hello World!
Hello World!-9.97236e+08Hello World!
Hello World!-1.00165e+09Hello World!
Hello World!-9.83085e+08Hello World!
Hello World!-9.4132e+08Hello World!
Hello World!-8.74319e+08Hello World!
Hello World!-7.801e+08Hello World!
Hello World!-6.46881e+08Hello World!
Hello World!-4.89325e+08Hello World!
Hello World!-3.20203e+08Hello World!
Hello World!-1.33526e+08Hello World!
Hello World!6.99205e+07Hello World!
Hello World!2.74412e+08Hello World!
Hello World!4.653e+08Hello World!
Hello World!6.47439e+08Hello World!
Hello World!7.97718e+08Hello World!
Hello World!9.02834e+08Hello World!
Hello World!9.74913e+08Hello World!
Hello World!1.0188e+09Hello World!
Hello World!1.02046e+09Hello World!
Hello World!9.81848e+08Hello World!
Hello World!9.19542e+08Hello World!
Hello World!8.2998e+08Hello World!
Hello World!7.10099e+08Hello World!
Hello World!5.75384e+08Hello World!
Hello World!4.31677e+08Hello World!
Hello World!2.68651e+08Hello World!
Hello World!9.33177e+07Hello World!
Hello World!-8.72277e+07Hello World!
Hello World!-2.7854e+08Hello World!
Hello World!-4.71702e+08Hello World!
Hello World!-6.55031e+08Hello World!
Hello World!-8.38007e+08Hello World!
Hello World!-1.00722e+09Hello World!
Hello World!-1.15992e+09Hello World!
Hello World!-1.27496e+09Hello World!
Hello World!-1.36498e+09Hello World!
Hello World!-1.41107e+09Hello World!
Hello World!-1.4287e+09Hello World!
Hello World!-1.41664e+09Hello World!
Hello World!-1.3893e+09Hello World!
Hello World!-1.32629e+09Hello World!
Hello World!-1.23298e+09Hello World!
Hello World!-1.12236e+09Hello World!
Hello World!-9.7593e+08Hello World!
Hello World!-8.05928e+08Hello World!
Hello World!-6.29284e+08Hello World!
Hello World!-4.40143e+08Hello World!
Hello World!-2.61575e+08Hello World!
Hello World!-9.61448e+07Hello World!
Hello World!5.31968e+07Hello World!
Hello World!1.80276e+08Hello World!
Hello World!2.80504e+08Hello World!
Hello World!3.46996e+08Hello World!
Hello World!3.80208e+08Hello World!
Hello World!3.94428e+08Hello World!
Hello World!3.73954e+08Hello World!
Hello World!3.21361e+08Hello World!
Hello World!2.61831e+08Hello World!
Hello World!2.00758e+08Hello World!
Hello World!1.21233e+08Hello World!
Hello World!2.21632e+07Hello World!
Hello World!-8.91673e+07Hello World!
Hello World!-2.04143e+08Hello World!
Hello World!-3.16946e+08Hello World!
Hello World!-4.37795e+08Hello World!
Hello World!-5.41964e+08Hello World!
Hello World!-6.31331e+08Hello World!
Hello World!-6.95259e+08Hello World!
Hello World!-7.50629e+08Hello World!
Hello World!-8.00636e+08Hello World!
Hello World!-8.44838e+08Hello World!
Hello World!-8.78646e+08Hello World!
Hello World!-8.90699e+08Hello World!
Hello World!-8.7297e+08Hello World!
Hello World!-8.2842e+08Hello World!
Hello World!-7.55541e+08Hello World!
Hello World!-6.65033e+08Hello World!
Hello World!-5.68508e+08Hello World!
Hello World!-4.47237e+08Hello World!
Hello World!-3.13407e+08Hello World!
Hello World!-1.67807e+08Hello World!
Hello World!-2.16939e+07Hello World!
Hello World!1.16617e+08Hello World!
Hello World!2.58715e+08Hello World!
Hello World!3.88103e+08Hello World!
Hello World!5.15535e+08Hello World!
Hello World!6.17838e+08Hello World!
Hello World!7.02104e+08Hello World!
Hello World!7.49316e+08Hello World!
Hello World!7.67882e+08Hello World!
Hello World!7.40541e+08Hello World!
Hello World!6.84559e+08Hello World!
Hello World!6.14981e+08Hello World!
Hello World!5.18879e+08Hello World!
Hello World!4.19152e+08Hello World!
Hello World!2.97209e+08Hello World!
Hello World!1.79174e+08Hello World!
Hello World!6.44141e+07Hello World!
Hello World!-5.56151e+07Hello World!
Hello World!-1.69777e+08Hello World!
Hello World!-2.73651e+08Hello World!
Hello World!-3.67682e+08Hello World!
Hello World!-4.5478e+08Hello World!
Hello World!-5.32937e+08Hello World!
Hello World!-6.03535e+08Hello World!
Hello World!-6.59853e+08Hello World!
Hello World!-6.88624e+08Hello World!
Hello World!-6.99654e+08Hello World!
Hello World!-7.00179e+08Hello World!
Hello World!-6.83194e+08Hello World!
Hello World!-6.46389e+08Hello World!
Hello World!-5.89412e+08Hello World!
Hello World!-5.354e+08Hello World!
Hello World!-4.6963e+08Hello World!
Hello World!-4.04073e+08Hello World!
Hello World!-3.27833e+08Hello World!
Hello World!-2.49846e+08Hello World!
Hello World!-1.79063e+08Hello World!
Hello World!-1.21236e+08Hello World!
Hello World!-9.0222e+07Hello World!
Hello World!-7.84267e+07Hello World!
Hello World!-8.93097e+07Hello World!
Hello World!-1.11559e+08Hello World!
Hello World!-1.53683e+08Hello World!
Hello World!-2.1207e+08Hello World!
Hello World!-2.98041e+08Hello World!
Hello World!-3.98445e+08Hello World!
Hello World!-4.98968e+08Hello World!
Hello World!-5.9472e+08Hello World!
Hello World!-6.83739e+08Hello World!
Hello World!-7.61863e+08Hello World!
Hello World!-8.28891e+08Hello World!
Hello World!-8.72446e+08Hello World!
Hello World!-9.00041e+08Hello World!
Hello World!-9.23091e+08Hello World!
Hello World!-9.48604e+08Hello World!
Hello World!-9.4705e+08Hello World!
Hello World!-9.19801e+08Hello World!
Hello World!-8.83931e+08Hello World!
Hello World!-8.45313e+08Hello World!
Hello World!-7.95593e+08Hello World!
Hello World!-7.33218e+08Hello World!
Hello World!-6.55564e+08Hello World!
Hello World!-5.78863e+08Hello World!
Hello World!-5.02165e+08Hello World!
Hello World!-4.29524e+08Hello World!
Hello World!-3.54836e+08Hello World!
Hello World!-2.76719e+08Hello World!
Hello World!-2.08953e+08Hello World!
Hello World!-1.44701e+08Hello World!
Hello World!-7.49217e+07Hello World!
Hello World!-1.42303e+07Hello World!
Hello World!4.78815e+07Hello World!
Hello World!9.9958e+07Hello World!
Hello World!1.54017e+08Hello World!
Hello World!1.96375e+08Hello World!
Hello World!2.14976e+08Hello World!
Hello World!2.15976e+08Hello World!
Hello World!1.95758e+08Hello World!
Hello World!1.52419e+08Hello World!
Hello World!8.68994e+07Hello World!
Hello World!1.09137e+07Hello World!
Hello World!-7.7742e+07Hello World!
Hello World!-1.76365e+08Hello World!
Hello World!-2.58621e+08Hello World!
Hello World!-3.2752e+08Hello World!
Hello World!-3.89688e+08Hello World!
Hello World!-4.31961e+08Hello World!
Hello World!-4.57395e+08Hello World!
Hello World!-4.72909e+08Hello World!
Hello World!-4.63336e+08Hello World!
Hello World!-4.22809e+08Hello World!
Hello World!-3.67087e+08Hello World!
Hello World!-3.04238e+08Hello World!
Hello World!-2.32875e+08Hello World!
Hello World!-1.70587e+08Hello World!
Hello World!-1.06591e+08Hello World!
Hello World!-5.41334e+07Hello World!
Hello World!-1.23274e+07Hello World!
Hello World!1.51881e+07Hello World!
Hello World!3.42047e+07Hello World!
Hello World!6.03239e+07Hello World!
Hello World!7.52886e+07Hello World!
Hello World!9.73193e+07Hello World!
Hello World!1.30963e+08Hello World!
Hello World!1.55321e+08Hello World!
Hello World!1.8573e+08Hello World!
Hello World!2.21813e+08Hello World!
Hello World!2.47857e+08Hello World!
Hello World!2.71367e+08Hello World!
Hello World!2.89379e+08Hello World!
Hello World!2.97061e+08Hello World!
Hello World!2.83649e+08Hello World!
Hello World!2.52118e+08Hello World!
Hello World!2.02187e+08Hello World!
Hello World!1.38497e+08Hello World!
Hello World!6.40309e+07Hello World!
Hello World!-2.33251e+07Hello World!
Hello World!-1.18751e+08Hello World!
Hello World!-2.29459e+08Hello World!
Hello World!-3.38485e+08Hello World!
Hello World!-4.4127e+08Hello World!
Hello World!-5.21946e+08Hello World!
Hello World!-6.07277e+08Hello World!
Hello World!-6.75233e+08Hello World!
Hello World!-7.29551e+08Hello World!
Hello World!-7.61269e+08Hello World!
Hello World!-7.8389e+08Hello World!
Hello World!-8.10542e+08Hello World!
Hello World!-8.25851e+08Hello World!
Hello World!-8.36724e+08Hello World!
Hello World!-8.49766e+08Hello World!
Hello World!-8.6033e+08Hello World!
Hello World!-8.78688e+08Hello World!
Hello World!-8.85599e+08Hello World!
Hello World!-8.86182e+08Hello World!
Hello World!-8.68615e+08Hello World!
Hello World!-8.27296e+08Hello World!
Hello World!-7.67822e+08Hello World!
Hello World!-6.89398e+08Hello World!
Hello World!-5.89433e+08Hello World!
Hello World!-4.64593e+08Hello World!
Hello World!-3.25815e+08Hello World!
Hello World!-1.79044e+08Hello World!
Hello World!-3.52344e+07Hello World!
Hello World!1.05119e+08Hello World!
Hello World!2.21236e+08Hello World!
Hello World!3.13941e+08Hello World!
Hello World!3.92333e+08Hello World!
Hello World!4.43418e+08Hello World!
Hello World!4.51129e+08Hello World!
Hello World!4.16669e+08Hello World!
Hello World!3.42688e+08Hello World!
Hello World!2.46239e+08Hello World!
Hello World!1.18498e+08Hello World!
Hello World!-2.90397e+07Hello World!
Hello World!-1.84103e+08Hello World!
Hello World!-3.55758e+08Hello World!
Hello World!-5.05507e+08Hello World!
Hello World!-6.45105e+08Hello World!
Hello World!-7.52207e+08Hello World!
Hello World!-8.46061e+08Hello World!
Hello World!-9.18407e+08Hello World!
Hello World!-9.73466e+08Hello World!
Hello World!-1.02349e+09Hello World!
Hello World!-1.05314e+09Hello World!
Hello World!-1.04781e+09Hello World!
Hello World!-1.04771e+09Hello World!
Hello World!-1.02947e+09Hello World!
Hello World!-9.81653e+08Hello World!
Hello World!-9.1234e+08Hello World!
Hello World!-8.28547e+08Hello World!
Hello World!-7.3708e+08Hello World!
Hello World!-6.23507e+08Hello World!
Hello World!-4.7949e+08Hello World!
Hello World!-3.22405e+08Hello World!
Hello World!-1.51786e+08Hello World!
Hello World!1.76544e+07Hello World!
Hello World!1.99573e+08Hello World!
Hello World!3.6841e+08Hello World!
Hello World!5.20895e+08Hello World!
Hello World!6.46291e+08Hello World!
Hello World!7.65281e+08Hello World!
Hello World!8.51656e+08Hello World!
Hello World!8.93591e+08Hello World!
Hello World!8.95249e+08Hello World!
Hello World!8.38691e+08Hello World!
Hello World!7.34754e+08Hello World!
Hello World!5.94385e+08Hello World!
Hello World!4.29112e+08Hello World!
Hello World!2.24357e+08Hello World!
Hello World!-106359Hello World!
Hello World!-2.35371e+08Hello World!
Hello World!-4.67008e+08Hello World!
Hello World!-6.83013e+08Hello World!
Hello World!-8.7943e+08Hello World!
Hello World!-1.04143e+09Hello World!
Hello World!-1.1706e+09Hello World!
Hello World!-1.26017e+09Hello World!
Hello World!-1.33692e+09Hello World!
Hello World!-1.37913e+09Hello World!
Hello World!-1.38446e+09Hello World!
Hello World!-1.36461e+09Hello World!
Hello World!-1.31887e+09Hello World!
Hello World!-1.25643e+09Hello World!
Hello World!-1.16357e+09Hello World!
Hello World!-1.05707e+09Hello World!
Hello World!-9.38583e+08Hello World!
Hello World!-8.07345e+08Hello World!
Hello World!-6.83574e+08Hello World!
Hello World!-5.57659e+08Hello World!
Hello World!-4.31125e+08Hello World!
Hello World!-3.08529e+08Hello World!
Hello World!-1.97086e+08Hello World!
Hello World!-9.65975e+07Hello World!
Hello World!-8.85444e+06Hello World!
Hello World!6.21361e+07Hello World!
Hello World!1.15505e+08Hello World!
Hello World!1.39615e+08Hello World!
Hello World!1.36961e+08Hello World!
Hello World!1.13509e+08Hello World!
Hello World!5.5087e+07Hello World!
Hello World!-3.44717e+07Hello World!
Hello World!-1.61263e+08Hello World!
Hello World!-3.08084e+08Hello World!
Hello World!-4.79538e+08Hello World!
Hello World!-6.53602e+08Hello World!
Hello World!-8.26755e+08Hello World!
Hello World!-9.89315e+08Hello World!
Hello World!-1.1418e+09Hello World!
Hello World!-1.27013e+09Hello World!
Hello World!-1.37301e+09Hello World!
Hello World!-1.44054e+09Hello World!
Hello World!-1.46369e+09Hello World!
Hello World!-1.43486e+09Hello World!
Hello World!-1.37948e+09Hello World!
Hello World!-1.29158e+09Hello World!
Hello World!-1.18238e+09Hello World!
Hello World!-1.06477e+09Hello World!
Hello World!-9.28708e+08Hello World!
Hello World!-7.93457e+08Hello World!
Hello World!-6.48187e+08Hello World!
Hello World!-4.96412e+08Hello World!
Hello World!-3.43192e+08Hello World!
Hello World!-1.91004e+08Hello World!
Hello World!-4.08536e+07Hello World!
Hello World!1.01031e+08Hello World!
Hello World!2.18492e+08Hello World!
Hello World!3.26754e+08Hello World!
Hello World!4.30866e+08Hello World!
Hello World!5.22403e+08Hello World!
Hello World!5.97445e+08Hello World!
Hello World!6.62603e+08Hello World!
Hello World!7.15483e+08Hello World!
Hello World!7.34091e+08Hello World!
Hello World!7.23688e+08Hello World!
Hello World!6.64661e+08Hello World!
Hello World!5.71087e+08Hello World!
Hello World!4.46933e+08Hello World!
Hello World!2.97096e+08Hello World!
Hello World!1.27891e+08Hello World!
Hello World!-4.47593e+07Hello World!
Hello World!-2.31871e+08Hello World!
Hello World!-4.17705e+08Hello World!
Hello World!-5.80642e+08Hello World!
Hello World!-7.20483e+08Hello World!
Hello World!-8.42421e+08Hello World!
Hello World!-9.38229e+08Hello World!
Hello World!-9.95143e+08Hello World!
Hello World!-1.01844e+09Hello World!
Hello World!-1.01624e+09Hello World!
Hello World!-9.83641e+08Hello World!
Hello World!-9.30969e+08Hello World!
Hello World!-8.68006e+08Hello World!
[...]
Hello World!-7.50493e+08Hello World!
Hello World!-6.03941e+08Hello World!
Hello World!-4.38174e+08Hello World!
Hello World!-2.73995e+08Hello World!
Hello World!-1.04e+08Hello World!
Hello World!7.02086e+07Hello World!
Hello World!2.36968e+08Hello World!
Hello World!3.94353e+08Hello World!
Hello World!5.34693e+08Hello World!
Hello World!6.5349e+08Hello World!
Hello World!7.33327e+08Hello World!
Hello World!7.77876e+08Hello World!
Hello World!7.91478e+08Hello World!
Hello World!7.60363e+08Hello World!
Hello World!6.89541e+08Hello World!
Hello World!5.98335e+08Hello World!
Hello World!4.8348e+08Hello World!
Hello World!3.32669e+08Hello World!
Hello World!1.71914e+08Hello World!
Hello World!-2.17941e+06Hello World!
Hello World!-1.82175e+08Hello World!
Hello World!-3.69354e+08Hello World!
Hello World!-5.60301e+08Hello World!
Hello World!-7.52796e+08Hello World!
Hello World!-9.27255e+08Hello World!
Hello World!-1.07996e+09Hello World!
Hello World!-1.21605e+09Hello World!
Hello World!-1.32594e+09Hello World!
Hello World!-1.41001e+09Hello World!
Hello World!-1.46491e+09Hello World!
Hello World!-1.49955e+09Hello World!
Hello World!-1.50456e+09Hello World!
Hello World!-1.47198e+09Hello World!
Hello World!-1.40892e+09Hello World!
Hello World!-1.31621e+09Hello World!
Hello World!-1.19898e+09Hello World!
Hello World!-1.06133e+09Hello World!
Hello World!-9.04548e+08Hello World!
Hello World!-7.37641e+08Hello World!
Hello World!-5.52697e+08Hello World!
Hello World!-3.71077e+08Hello World!
Hello World!-1.88848e+08Hello World!
Hello World!-2.36362e+07Hello World!
Hello World!1.23609e+08Hello World!
Hello World!2.43337e+08Hello World!
Hello World!3.32184e+08Hello World!
Hello World!3.66291e+08Hello World!
Hello World!3.54194e+08Hello World!
Hello World!3.17599e+08Hello World!
Hello World!2.37718e+08Hello World!
Hello World!1.23409e+08Hello World!
Hello World!-8.53281e+06Hello World!
Hello World!-1.54315e+08Hello World!
Hello World!-2.96872e+08Hello World!
Hello World!-4.37263e+08Hello World!
Hello World!-5.90259e+08Hello World!
Hello World!-7.58958e+08Hello World!
Hello World!-9.20813e+08Hello World!
Hello World!-1.06906e+09Hello World!
Hello World!-1.19803e+09Hello World!
Hello World!-1.30152e+09Hello World!
Hello World!-1.38529e+09Hello World!
Hello World!-1.44038e+09Hello World!
Hello World!-1.46883e+09Hello World!
Hello World!-1.46855e+09Hello World!
Hello World!-1.44515e+09Hello World!
Hello World!-1.38509e+09Hello World!
Hello World!-1.29695e+09Hello World!
Hello World!-1.19162e+09Hello World!
Hello World!-1.07065e+09Hello World!
Hello World!-9.49036e+08Hello World!
Hello World!-8.20731e+08Hello World!
Hello World!-6.76251e+08Hello World!
Hello World!-5.30066e+08Hello World!
Hello World!-3.84485e+08Hello World!
Hello World!-2.43386e+08Hello World!
Hello World!-1.03601e+08Hello World!
Hello World!1.74364e+07Hello World!
Hello World!1.24986e+08Hello World!
Hello World!2.16204e+08Hello World!
Hello World!2.85394e+08Hello World!
Hello World!3.21761e+08Hello World!
Hello World!3.41996e+08Hello World!
Hello World!3.29917e+08Hello World!
Hello World!2.81565e+08Hello World!
Hello World!2.10522e+08Hello World!
Hello World!1.09107e+08Hello World!
Hello World!-3.56432e+06Hello World!
Hello World!-1.36011e+08Hello World!
Hello World!-2.66844e+08Hello World!
Hello World!-4.01848e+08Hello World!
Hello World!-5.60474e+08Hello World!
Hello World!-7.13479e+08Hello World!
Hello World!-8.52854e+08Hello World!
Hello World!-9.90749e+08Hello World!
Hello World!-1.104e+09Hello World!
Hello World!-1.18917e+09Hello World!
Hello World!-1.24629e+09Hello World!
Hello World!-1.27726e+09Hello World!
Hello World!-1.28687e+09Hello World!
Hello World!-1.26737e+09Hello World!
Hello World!-1.23045e+09Hello World!
Hello World!-1.1726e+09Hello World!
Hello World!-1.10234e+09Hello World!
Hello World!-1.01331e+09Hello World!
Hello World!-9.07373e+08Hello World!
Hello World!-7.89898e+08Hello World!
Hello World!-6.67386e+08Hello World!
Hello World!-5.45258e+08Hello World!
Hello World!-4.1513e+08Hello World!
Hello World!-2.90207e+08Hello World!
Hello World!-1.72047e+08Hello World!
Hello World!-5.7723e+07Hello World!
Hello World!3.93509e+07Hello World!
Hello World!1.40311e+08Hello World!
Hello World!2.23582e+08Hello World!
Hello World!2.86854e+08Hello World!
Hello World!3.30664e+08Hello World!
Hello World!3.42121e+08Hello World!
Hello World!3.20781e+08Hello World!
Hello World!2.81234e+08Hello World!
Hello World!2.06711e+08Hello World!
Hello World!1.06021e+08Hello World!
Hello World!-2.06771e+07Hello World!
Hello World!-1.68239e+08Hello World!
Hello World!-3.26739e+08Hello World!
Hello World!-4.98934e+08Hello World!
Hello World!-6.73598e+08Hello World!
Hello World!-8.45791e+08Hello World!
Hello World!-1.01764e+09Hello World!
Hello World!-1.18204e+09Hello World!
Hello World!-1.31593e+09Hello World!
Hello World!-1.42252e+09Hello World!
Hello World!-1.49107e+09Hello World!
Hello World!-1.53435e+09Hello World!
Hello World!-1.54104e+09Hello World!
Hello World!-1.50661e+09Hello World!
Hello World!-1.43891e+09Hello World!
Hello World!-1.3251e+09Hello World!
Hello World!-1.20147e+09Hello World!
Hello World!-1.05868e+09Hello World!
Hello World!-8.9729e+08Hello World!
Hello World!-7.27131e+08Hello World!
Hello World!-5.44727e+08Hello World!
Hello World!-3.65187e+08Hello World!
Hello World!-1.88948e+08Hello World!
Hello World!-2.0381e+07Hello World!
Hello World!1.44369e+08Hello World!
Hello World!2.9825e+08Hello World!
Hello World!4.28735e+08Hello World!
Hello World!5.25509e+08Hello World!
Hello World!6.05949e+08Hello World!
Hello World!6.57919e+08Hello World!
Hello World!6.74715e+08Hello World!
Hello World!6.60543e+08Hello World!
Hello World!5.99489e+08Hello World!
Hello World!5.09229e+08Hello World!
Hello World!3.88983e+08Hello World!
Hello World!2.5023e+08Hello World!
Hello World!8.03134e+07Hello World!
Hello World!-1.0673e+08Hello World!
Hello World!-3.03319e+08Hello World!
Hello World!-5.03337e+08Hello World!
Hello World!-6.81801e+08Hello World!
Hello World!-8.34464e+08Hello World!
Hello World!-9.75472e+08Hello World!
Hello World!-1.1005e+09Hello World!
Hello World!-1.20056e+09Hello World!
Hello World!-1.27032e+09Hello World!
Hello World!-1.31058e+09Hello World!
Hello World!-1.31861e+09Hello World!
Hello World!-1.30326e+09Hello World!
Hello World!-1.26935e+09Hello World!
Hello World!-1.20843e+09Hello World!
Hello World!-1.12579e+09Hello World!
Hello World!-1.01675e+09Hello World!
Hello World!-8.86025e+08Hello World!
Hello World!-7.42819e+08Hello World!
Hello World!-5.83686e+08Hello World!
Hello World!-4.2493e+08Hello World!
Hello World!-2.6448e+08Hello World!
Hello World!-1.05863e+08Hello World!
Hello World!5.45569e+07Hello World!
Hello World!1.98984e+08Hello World!
Hello World!3.33e+08Hello World!
Hello World!4.41813e+08Hello World!
Hello World!5.39982e+08Hello World!
Hello World!6.12935e+08Hello World!
Hello World!6.70734e+08Hello World!
Hello World!6.99837e+08Hello World!
Hello World!7.0394e+08Hello World!
Hello World!6.85265e+08Hello World!
Hello World!6.44417e+08Hello World!
Hello World!5.55948e+08Hello World!
Hello World!4.49103e+08Hello World!
Hello World!3.31992e+08Hello World!
Hello World!2.0615e+08Hello World!
Hello World!4.83377e+07Hello World!
Hello World!-1.14456e+08Hello World!
Hello World!-2.91072e+08Hello World!
Hello World!-4.67618e+08Hello World!
Hello World!-6.39175e+08Hello World!
Hello World!-7.8994e+08Hello World!
Hello World!-9.1701e+08Hello World!
Hello World!-1.02261e+09Hello World!
Hello World!-1.09846e+09Hello World!
Hello World!-1.13302e+09Hello World!
Hello World!-1.1344e+09Hello World!
Hello World!-1.11188e+09Hello World!
Hello World!-1.06616e+09Hello World!
Hello World!-1.0014e+09Hello World!
Hello World!-9.20925e+08Hello World!
Hello World!-8.17163e+08Hello World!
Hello World!-6.97234e+08Hello World!
Hello World!-5.65762e+08Hello World!
Hello World!-4.31256e+08Hello World!
Hello World!-2.86468e+08Hello World!
Hello World!-1.50876e+08Hello World!
Hello World!-1.94514e+07Hello World!
Hello World!1.15341e+08Hello World!
Hello World!2.37816e+08Hello World!
Hello World!3.51428e+08Hello World!
Hello World!4.4585e+08Hello World!
Hello World!5.10079e+08Hello World!
Hello World!5.46018e+08Hello World!
Hello World!5.48258e+08Hello World!
Hello World!5.2711e+08Hello World!
Hello World!4.72197e+08Hello World!
Hello World!3.75476e+08Hello World!
Hello World!2.36459e+08Hello World!
Hello World!5.99747e+07Hello World!
Hello World!-1.34968e+08Hello World!
Hello World!-3.36476e+08Hello World!
Hello World!-5.2981e+08Hello World!
Hello World!-7.29409e+08Hello World!
Hello World!-9.20587e+08Hello World!
Hello World!-1.09091e+09Hello World!
Hello World!-1.24259e+09Hello World!
Hello World!-1.36016e+09Hello World!
Hello World!-1.43327e+09Hello World!
Hello World!-1.45925e+09Hello World!
Hello World!-1.44718e+09Hello World!
Hello World!-1.40124e+09Hello World!
Hello World!-1.31694e+09Hello World!
Hello World!-1.20019e+09Hello World!
Hello World!-1.06218e+09Hello World!
Hello World!-8.9141e+08Hello World!
Hello World!-7.06619e+08Hello World!
Hello World!-5.01877e+08Hello World!
Hello World!-3.0279e+08Hello World!
Hello World!-1.08152e+08Hello World!
Hello World!7.44166e+07Hello World!
Hello World!2.38813e+08Hello World!
Hello World!3.83974e+08Hello World!
Hello World!5.09026e+08Hello World!
Hello World!5.99232e+08Hello World!
Hello World!6.61251e+08Hello World!
Hello World!6.89188e+08Hello World!
Hello World!6.88624e+08Hello World!
Hello World!6.61073e+08Hello World!
Hello World!6.02219e+08Hello World!
Hello World!5.12027e+08Hello World!
Hello World!3.93563e+08Hello World!
Hello World!2.53136e+08Hello World!
Hello World!9.89836e+07Hello World!
Hello World!-5.36966e+07Hello World!
Hello World!-2.27841e+08Hello World!
Hello World!-4.09459e+08Hello World!
Hello World!-5.89241e+08Hello World!
Hello World!-7.66523e+08Hello World!
Hello World!-9.25264e+08Hello World!
Hello World!-1.06382e+09Hello World!
Hello World!-1.17184e+09Hello World!
Hello World!-1.25673e+09Hello World!
Hello World!-1.29701e+09Hello World!
Hello World!-1.30901e+09Hello World!
Hello World!-1.29207e+09Hello World!
Hello World!-1.24238e+09Hello World!
Hello World!-1.16427e+09Hello World!
Hello World!-1.0508e+09Hello World!
Hello World!-9.11519e+08Hello World!
Hello World!-7.58716e+08Hello World!
Hello World!-5.96117e+08Hello World!
Hello World!-4.46434e+08Hello World!
Hello World!-3.11471e+08Hello World!
Hello World!-1.83289e+08Hello World!
Hello World!-6.15817e+07Hello World!
Hello World!4.89659e+07Hello World!
Hello World!1.49578e+08Hello World!
Hello World!2.29175e+08Hello World!
Hello World!2.96213e+08Hello World!
Hello World!3.33529e+08Hello World!
Hello World!3.48322e+08Hello World!
Hello World!3.46662e+08Hello World!
Hello World!3.19496e+08Hello World!
Hello World!2.67473e+08Hello World!
Hello World!2.08474e+08Hello World!
Hello World!1.39203e+08Hello World!
Hello World!4.60254e+07Hello World!
Hello World!-4.63061e+07Hello World!
Hello World!-1.54537e+08Hello World!
Hello World!-2.734e+08Hello World!
Hello World!-3.88461e+08Hello World!
Hello World!-4.96076e+08Hello World!
Hello World!-6.02117e+08Hello World!
Hello World!-6.93815e+08Hello World!
Hello World!-7.77424e+08Hello World!
Hello World!-8.53425e+08Hello World!
Hello World!-9.0269e+08Hello World!
Hello World!-9.19631e+08Hello World!
Hello World!-9.20195e+08Hello World!
Hello World!-8.94019e+08Hello World!
Hello World!-8.49083e+08Hello World!
Hello World!-7.6897e+08Hello World!
Hello World!-6.68604e+08Hello World!
Hello World!-5.56924e+08Hello World!
Hello World!-4.32093e+08Hello World!
Hello World!-3.09826e+08Hello World!
Hello World!-1.83992e+08Hello World!
Hello World!-5.44775e+07Hello World!
Hello World!8.27579e+07Hello World!
Hello World!2.08414e+08Hello World!
Hello World!3.13319e+08Hello World!
Hello World!4.04106e+08Hello World!
Hello World!4.77628e+08Hello World!
Hello World!5.43879e+08Hello World!
Hello World!5.79457e+08Hello World!
Hello World!6.1915e+08Hello World!
Hello World!6.4241e+08Hello World!
Hello World!6.51728e+08Hello World!
Hello World!6.4994e+08Hello World!
Hello World!6.30933e+08Hello World!
Hello World!5.94983e+08Hello World!
Hello World!5.50877e+08Hello World!
Hello World!4.87892e+08Hello World!
Hello World!4.2159e+08Hello World!
Hello World!3.38563e+08Hello World!
Hello World!2.44428e+08Hello World!
Hello World!1.44799e+08Hello World!
Hello World!4.32106e+07Hello World!
Hello World!-6.19629e+07Hello World!
Hello World!-1.78199e+08Hello World!
Hello World!-2.87027e+08Hello World!
Hello World!-3.93146e+08Hello World!
Hello World!-4.96736e+08Hello World!
Hello World!-5.89756e+08Hello World!
Hello World!-6.60744e+08Hello World!
Hello World!-7.15747e+08Hello World!
Hello World!-7.46972e+08Hello World!
Hello World!-7.4721e+08Hello World!
Hello World!-7.30792e+08Hello World!
Hello World!-6.92621e+08Hello World!
Hello World!-6.32782e+08Hello World!
Hello World!-5.68469e+08Hello World!
Hello World!-4.96275e+08Hello World!
Hello World!-4.18296e+08Hello World!
Hello World!-3.42582e+08Hello World!
Hello World!-2.77023e+08Hello World!
Hello World!-2.18197e+08Hello World!
Hello World!-1.55964e+08Hello World!
Hello World!-9.70974e+07Hello World!
Hello World!-4.39992e+07Hello World!
Hello World!3.59792e+06Hello World!
Hello World!4.66026e+07Hello World!
Hello World!8.24589e+07Hello World!
Hello World!1.20303e+08Hello World!
Hello World!1.3297e+08Hello World!
Hello World!1.32467e+08Hello World!
Hello World!1.24028e+08Hello World!
Hello World!1.05872e+08Hello World!
Hello World!6.7975e+07Hello World!
Hello World!1.24036e+07Hello World!
Hello World!-6.70273e+07Hello World!
Hello World!-1.55332e+08Hello World!
Hello World!-2.57107e+08Hello World!
Hello World!-3.53821e+08Hello World!
Hello World!-4.44616e+08Hello World!
Hello World!-5.35194e+08Hello World!
Hello World!-6.10702e+08Hello World!
Hello World!-6.73382e+08Hello World!
Hello World!-7.24101e+08Hello World!
Hello World!-7.49588e+08Hello World!
Hello World!-7.58674e+08Hello World!
Hello World!-7.44529e+08Hello World!
Hello World!-6.98138e+08Hello World!
Hello World!-6.30573e+08Hello World!
Hello World!-5.53902e+08Hello World!
Hello World!-4.7114e+08Hello World!
Hello World!-3.76165e+08Hello World!
Hello World!-2.86278e+08Hello World!
Hello World!-1.97161e+08Hello World!
Hello World!-1.09582e+08Hello World!
Hello World!-1.97291e+07Hello World!
Hello World!6.82143e+07Hello World!
Hello World!1.52174e+08Hello World!
Hello World!2.32439e+08Hello World!
Hello World!3.09119e+08Hello World!
Hello World!3.85992e+08Hello World!
Hello World!4.73779e+08Hello World!
Hello World!5.41341e+08Hello World!
Hello World!6.04431e+08Hello World!
Hello World!6.50697e+08Hello World!
Hello World!7.01337e+08Hello World!
Hello World!7.31996e+08Hello World!
Hello World!7.46362e+08Hello World!
Hello World!7.31326e+08Hello World!
Hello World!6.79706e+08Hello World!
Hello World!5.88379e+08Hello World!
Hello World!4.7142e+08Hello World!
Hello World!3.23793e+08Hello World!
Hello World!1.5986e+08Hello World!
Hello World!-2.01511e+07Hello World!
Hello World!-2.00058e+08Hello World!
Hello World!-3.78083e+08Hello World!
Hello World!-5.29777e+08Hello World!
Hello World!-6.60144e+08Hello World!
Hello World!-7.53081e+08Hello World!
Hello World!-8.14263e+08Hello World!
Hello World!-8.55547e+08Hello World!
Hello World!-8.73015e+08Hello World!
Hello World!-8.65019e+08Hello World!
Hello World!-8.34417e+08Hello World!
Hello World!-7.85726e+08Hello World!
Hello World!-7.23055e+08Hello World!
Hello World!-6.58174e+08Hello World!
Hello World!-5.8626e+08Hello World!
Hello World!-5.0548e+08Hello World!
Hello World!-4.20943e+08Hello World!
Hello World!-3.22512e+08Hello World!
Hello World!-2.21312e+08Hello World!
Hello World!-1.17815e+08Hello World!
Hello World!-4.45239e+06Hello World!
Hello World!1.00016e+08Hello World!
Hello World!2.04761e+08Hello World!
Hello World!2.91494e+08Hello World!
Hello World!3.59498e+08Hello World!
Hello World!4.21128e+08Hello World!
Hello World!4.55361e+08Hello World!
Hello World!4.71368e+08Hello World!
Hello World!4.60652e+08Hello World!
Hello World!4.15495e+08Hello World!
Hello World!3.43205e+08Hello World!
Hello World!2.49474e+08Hello World!
Hello World!1.28195e+08Hello World!
Hello World!-2.81216e+06Hello World!
Hello World!-1.5331e+08Hello World!
Hello World!-3.05154e+08Hello World!
Hello World!-4.57557e+08Hello World!
Hello World!-6.06039e+08Hello World!
Hello World!-7.46361e+08Hello World!
Hello World!-8.75409e+08Hello World!
Hello World!-9.77486e+08Hello World!
Hello World!-1.05716e+09Hello World!
Hello World!-1.10607e+09Hello World!
Hello World!-1.11772e+09Hello World!
Hello World!-1.09753e+09Hello World!
Hello World!-1.02874e+09Hello World!
Hello World!-9.34334e+08Hello World!
Hello World!-8.1478e+08Hello World!
Hello World!-6.67391e+08Hello World!
Hello World!-5.0449e+08Hello World!
Hello World!-3.34622e+08Hello World!
Hello World!-1.70299e+08Hello World!
Hello World!-1.52408e+07Hello World!
Hello World!1.28246e+08Hello World!
Hello World!2.82779e+08Hello World!
Hello World!4.36412e+08Hello World!
Hello World!5.76903e+08Hello World!
Hello World!7.08185e+08Hello World!
Hello World!8.14849e+08Hello World!
Hello World!8.99315e+08Hello World!
Hello World!9.6631e+08Hello World!
Hello World!1.00466e+09Hello World!
Hello World!1.01265e+09Hello World!
Hello World!9.95906e+08Hello World!
Hello World!9.50373e+08Hello World!
Hello World!8.75155e+08Hello World!
Hello World!7.68382e+08Hello World!
Hello World!6.41128e+08Hello World!
Hello World!4.81248e+08Hello World!
Hello World!3.05173e+08Hello World!
Hello World!1.32398e+08Hello World!
Hello World!-4.32278e+07Hello World!
Hello World!-2.15035e+08Hello World!
Hello World!-3.82831e+08Hello World!
Hello World!-5.24859e+08Hello World!
Hello World!-6.39646e+08Hello World!
Hello World!-7.45321e+08Hello World!
Hello World!-8.25386e+08Hello World!
Hello World!-8.63837e+08Hello World!
Hello World!-8.78164e+08Hello World!
Hello World!-8.5729e+08Hello World!
Hello World!-8.06651e+08Hello World!
Hello World!-7.10411e+08Hello World!
Hello World!-5.84311e+08Hello World!
Hello World!-4.36002e+08Hello World!
Hello World!-2.74876e+08Hello World!
Hello World!-1.0937e+08Hello World!
Hello World!5.07736e+07Hello World!
Hello World!2.11592e+08Hello World!
Hello World!3.6537e+08Hello World!
Hello World!5.1888e+08Hello World!
Hello World!6.44923e+08Hello World!
Hello World!7.58027e+08Hello World!
Hello World!8.58976e+08Hello World!
Hello World!9.34544e+08Hello World!
Hello World!1.00395e+09Hello World!
Hello World!1.05572e+09Hello World!
Hello World!1.07189e+09Hello World!
Hello World!1.06359e+09Hello World!
Hello World!1.01861e+09Hello World!
Hello World!9.27461e+08Hello World!
Hello World!7.98884e+08Hello World!
Hello World!6.28272e+08Hello World!
Hello World!4.10826e+08Hello World!
Hello World!1.73978e+08Hello World!
Hello World!-7.59072e+07Hello World!
Hello World!-3.27743e+08Hello World!
Hello World!-5.75149e+08Hello World!
Hello World!-7.98181e+08Hello World!
Hello World!-9.92361e+08Hello World!
Hello World!-1.16667e+09Hello World!
Hello World!-1.30167e+09Hello World!
Hello World!-1.40558e+09Hello World!
Hello World!-1.45918e+09Hello World!
Hello World!-1.46571e+09Hello World!
Hello World!-1.42713e+09Hello World!
Hello World!-1.34808e+09Hello World!
Hello World!-1.23374e+09Hello World!
Hello World!-1.078e+09Hello World!
Hello World!-8.98241e+08Hello World!
Hello World!-7.04786e+08Hello World!
Hello World!-4.95987e+08Hello World!
Hello World!-2.77564e+08Hello World!
Hello World!-4.98663e+07Hello World!
Hello World!1.77893e+08Hello World!
Hello World!3.91763e+08Hello World!
Hello World!5.95107e+08Hello World!
Hello World!7.7996e+08Hello World!
Hello World!9.34921e+08Hello World!
Hello World!1.06003e+09Hello World!
Hello World!1.15438e+09Hello World!
Hello World!1.21997e+09Hello World!
Hello World!1.24687e+09Hello World!
Hello World!1.22939e+09Hello World!
Hello World!1.16967e+09Hello World!
Hello World!1.07061e+09Hello World!
Hello Wor